You are running Q-Chem version: 5.3.0

#
# job setting
#
local host:  smp-n131.crc.pitt.edu
current dir: /scratch/slurm-2254614
input file:  A_DAB5_ts1_9.in
output file: 
nprocs     : 0
nthreads   : 12
#
# qchem installation setting
#
QC:          /ihome/crc/install/qchem/5.3
QCAUX:       /ihome/crc/install/qchem/5.3/qcaux
QCPROG:      /ihome/crc/install/qchem/5.3/exe/qcprog.exe_s
QCPROG_S:    /ihome/crc/install/qchem/5.3/exe/qcprog.exe_s
PARALLEL:    -DSERIAL
QCMPI:       openmpi
#
# qchem directory setting
#
qcrun:       qchem154571
QCSCRATCH:   /ihome/pliu/bim12/capt1/xtb/A_DAB5_ts1/gaussian/eda2
QCLOCALSCR:  /scratch/slurm-2254614
QCTMPDIR:    /scratch/slurm-2254614
QCFILEPREF:  /scratch/slurm-2254614/qchem154571
QCSAVEDIR:   
workdirs:    /scratch/slurm-2254614/qchem154571
workdir0:    /scratch/slurm-2254614/qchem154571
partmpdirs =  
#
# parallel setting
#
QCRSH:           ssh
QCMPI:           openmpi
QCMPIRUN:        mpirun
QCMACHINEFILE:   /scratch/slurm-2254614/qchem154571/hostfile

#
# env setting
#
exported envs:   QC QCAUX QCSCRATCH QCRUNNAME QCFILEPREF QCPROG QCPROG_S GUIFILE

Running Job 1 of 1 A_DAB5_ts1_9.in
qchem A_DAB5_ts1_9.in_154571.0 /scratch/slurm-2254614/qchem154571/ 0
/ihome/crc/install/qchem/5.3/exe/qcprog.exe_s A_DAB5_ts1_9.in_154571.0 /scratch/slurm-2254614/qchem154571/
                  Welcome to Q-Chem
     A Quantum Leap Into The Future Of Chemistry


 Q-Chem 5.3, Q-Chem, Inc., Pleasanton, CA (2020)

 License issued to: SRG Peng Liu, University of Pittsburgh

 Yihan Shao,  Zhengting Gan,  E. Epifanovsky,  A. T. B. Gilbert,  M. Wormit,  
 J. Kussmann,  A. W. Lange,  A. Behn,  Jia Deng,  Xintian Feng,  D. Ghosh,  
 M. Goldey,  P. R. Horn,  L. D. Jacobson,  I. Kaliman,  T. Kus,  A. Landau,  
 Jie Liu,  E. I. Proynov,  R. M. Richard,  R. P. Steele,  E. J. Sundstrom,  
 H. L. Woodcock III,  P. M. Zimmerman,  D. Zuev,  B. Alam,  B. Albrecht,  
 A. Aldossary,  E. Alguire,  S. A. Baeppler,  D. Barton,  Z. Benda,  
 Y. A. Bernard,  E. J. Berquist,  K. B. Bravaya,  H. Burton,  K. Carter-Fenk,  
 D. Casanova,  Chun-Min Chang,  Yunqing Chen,  A. Chien,  K. D. Closser,  
 M. P. Coons,  S. Coriani,  S. Dasgupta,  A. L. Dempwolff,  M. Diedenhofen,  
 Hainam Do,  R. G. Edgar,  Po-Tung Fang,  S. Faraji,  S. Fatehi,  
 Qingguo Feng,  J. Fosso-Tande,  J. Gayvert,  Qinghui Ge,  A. Ghysels,  
 G. Gidofalvi,  J. Gomes,  J. Gonthier,  S. Gulania,  A. Gunina,  D. Hait,  
 M. W. D. Hanson-Heine,  S. Hammes-Schiffer,  P. H. P. Harbach,  
 A. W. Hauser,  M. F. Herbst,  J. E. Herr,  E. G. Hohenstein,  Z. C. Holden,  
 S. Houck,  Kerwin Hui,  B. C. Huynh,  M. Ivanov,  T.-C. Jagau,  Hyunjun Ji,  
 B. Kaduk,  K. Khistyaev,  Jaehoon Kim,  P. Klunzinger,  K. Koh,  
 D. Kosenkov,  L. Koulias,  T. Kowalczyk,  C. M. Krauter,  A. Kunitsa,  
 Ka Un Lao,  A. Laurent,  K. V. Lawler,  Joonho Lee,  D. Lefrancois,  
 S. Lehtola,  D. S. Levine,  Yi-Pei Li,  You-Sheng Lin,  Fenglai Liu,  
 Kuan-Yu Liu,  E. Livshits,  M. Loipersberger,  A. Luenser,  P. Manohar,  
 E. Mansoor,  S. F. Manzer,  Shan-Ping Mao,  Yuezhi Mao,  N. Mardirossian,  
 A. V. Marenich,  T. Markovich,  L. A. Martinez-Martinez,  S. A. Maurer,  
 N. J. Mayhall,  S. C. McKenzie,  J.-M. Mewes,  P. Morgante,  A. F. Morrison,  
 J. W. Mullinax,  K. Nanda,  T. S. Nguyen-Beck,  R. Olivares-Amaya,  
 K. J. Oosterbaan,  J. A. Parkhill,  S. K. Paul,  F. Pavosevic,  Zheng Pei,  
 T. M. Perrine,  F. Plasser,  P. Pokhilko,  S. Prager,  A. Prociuk,  
 E. Ramos,  B. Rana,  D. R. Rehn,  F. Rob,  E. Rossomme,  M. Scheurer,  
 M. Schneider,  N. Sergueev,  S. M. Sharada,  S. Sharma,  W. Skomorowski,  
 D. W. Small,  T. Stauch,  C. J. Stein,  T. Stein,  Yu-Chuan Su,  
 S. P. Veccham,  Zhen Tao,  A. J. W. Thom,  A. Tkatchenko,  T. Tsuchimochi,  
 N. M. Tubman,  L. Vogt,  M. L. Vidal,  O. Vydrov,  M. A. Watson,  J. Wenzel,  
 M. de Wergifosse,  T. A. Wesolowski,  A. White,  J. Witte,  A. Yamada,  
 Jun Yang,  K. Yao,  S. Yeganeh,  S. R. Yost,  Zhi-Qiang You,  A. Zech,  
 Igor Ying Zhang,  Xing Zhang,  Yan Zhao,  Ying Zhu,  B. R. Brooks,  
 G. K. L. Chan,  C. J. Cramer,  M. S. Gordon,  W. J. Hehre,  A. Klamt,  
 M. W. Schmidt,  C. D. Sherrill,  D. G. Truhlar,  A. Aspuru-Guzik,  R. Baer,  
 A. T. Bell,  N. A. Besley,  Jeng-Da Chai,  A. E. DePrince, III,  
 R. A. DiStasio Jr.,  A. Dreuw,  B. D. Dunietz,  T. R. Furlani,  
 Chao-Ping Hsu,  Yousung Jung,  Jing Kong,  D. S. Lambrecht,  WanZhen Liang,  
 C. Ochsenfeld,  V. A. Rassolov,  L. V. Slipchenko,  J. E. Subotnik,  
 T. Van Voorhis,  J. M. Herbert,  A. I. Krylov,  P. M. W. Gill,  M. Head-Gordon

 Contributors to earlier versions of Q-Chem not listed above: 
 R. D. Adamson,  B. Austin,  J. Baker,  G. J. O. Beran,  K. Brandhorst,  
 S. T. Brown,  E. F. C. Byrd,  A. K. Chakraborty,  C.-L. Cheng,  
 Siu Hung Chien,  D. M. Chipman,  D. L. Crittenden,  H. Dachsel,  
 R. J. Doerksen,  A. D. Dutoi,  L. Fusti-Molnar,  W. A. Goddard III,  
 A. Golubeva-Zadorozhnaya,  S. R. Gwaltney,  G. Hawkins,  A. Heyden,  
 S. Hirata,  G. Kedziora,  F. J. Keil,  C. Kelley,  Jihan Kim,  R. A. King,  
 R. Z. Khaliullin,  P. P. Korambath,  W. Kurlancheek,  A. M. Lee,  M. S. Lee,  
 S. V. Levchenko,  Ching Yeh Lin,  D. Liotard,  R. C. Lochan,  I. Lotan,  
 P. E. Maslen,  N. Nair,  D. P. O'Neill,  D. Neuhauser,  E. Neuscamman,  
 C. M. Oana,  R. Olson,  B. Peters,  R. Peverati,  P. A. Pieniazek,  
 Y. M. Rhee,  J. Ritchie,  M. A. Rohrdanz,  E. Rosta,  N. J. Russ,  
 H. F. Schaefer III,  N. E. Schultz,  N. Shenvi,  A. C. Simmonett,  A. Sodt,  
 D. Stuck,  K. S. Thanthiriwatte,  V. Vanovschi,  Tao Wang,  A. Warshel,  
 C. F. Williams,  Q. Wu,  X. Xu,  W. Zhang

 Please cite Q-Chem as follows:
 Y. Shao et al., Mol. Phys. 113, 184-215 (2015)
 DOI: 10.1080/00268976.2014.952696

 Q-Chem 5.3.0 for Intel X86 EM64T Linux

 Parts of Q-Chem use Armadillo 9.800.1 (Horizon Scraper).
 http://arma.sourceforge.net/

 Q-Chem begins on Sun Jan 17 00:40:47 2021  

Host: 
0

     Scratch files written to /scratch/slurm-2254614/qchem154571//
 Jun1620 |scratch|qcdevops|jenkins|workspace|build_RNUM 7366   
Processing $rem in /ihome/crc/install/qchem/5.3/config/preferences:
Processing $rem in /ihome/pliu/bim12/.qchemrc:
Symmetry turned off for PCM/SM12/SMD calculation

Checking the input file for inconsistencies... 	...done.

--------------------------------------------------------------
User input:
--------------------------------------------------------------
$molecule
-1 1
---
-1 1
P    -0.583042    -0.910561    -0.195907
O    -1.081124    -0.148760     1.009570
O    -0.135060    -0.199846    -1.430164
O    -1.738310    -2.050300    -0.504768
O     0.714003    -1.864921     0.242016
C     0.559585    -3.068335     0.891818
C     1.157904    -3.191156     2.178078
C     0.996187    -4.378184     2.857382
H     1.450529    -4.499400     3.836170
C     0.241089    -5.451866     2.321052
C    -0.000416    -6.633149     3.072051
H     0.421762    -6.707671     4.071599
C    -0.762027    -7.656223     2.555222
H    -0.946545    -8.552249     3.141310
C    -1.314568    -7.535625     1.257754
H    -1.928477    -8.338020     0.857968
C    -1.088222    -6.408406     0.499289
H    -1.524553    -6.324644    -0.489449
C    -0.300877    -5.334502     0.999868
C    -0.073432    -4.127577     0.256724
C    -0.521894    -3.987074    -1.156321
C    -1.384512    -2.961204    -1.494706
C    -1.939300    -2.789363    -2.790749
C    -1.556237    -3.689892    -3.762273
H    -1.982634    -3.607063    -4.757473
C    -0.591192    -4.699794    -3.514856
C    -0.130553    -5.547962    -4.556767
H    -0.552222    -5.423809    -5.551338
C     0.843819    -6.490609    -4.322419
H     1.195788    -7.126554    -5.129997
C     1.402201    -6.620601    -3.028611
H     2.187811    -7.350507    -2.852776
C     0.966319    -5.824395    -1.992956
H     1.410362    -5.923345    -1.008909
C    -0.050011    -4.852950    -2.197746
C    -2.913788    -1.693704    -3.087410
C    -2.554281    -0.643612    -3.963462
C    -4.214713    -1.738599    -2.535161
C    -3.534925     0.285994    -4.329490
C    -5.146792    -0.766953    -2.912293
C    -4.835752     0.239732    -3.828949
H    -3.274768     1.078554    -5.026628
H    -6.148301    -0.815306    -2.493831
C     2.018639    -2.083331     2.704478
C     1.470031    -1.059702     3.513153
C     3.397354    -2.093322     2.392193
C     2.317016    -0.041995     3.968990
C     4.202876    -1.062868     2.892962
C     3.685703    -0.026180     3.672941
H     1.904954     0.741312     4.598710
H     5.267619    -1.073133     2.690658
C    -1.138818    -0.472509    -4.510961
H    -0.471294    -1.101468    -3.916145
C    -4.658769    -2.835571    -1.571432
H    -3.783728    -3.422988    -1.284131
C    -5.854687     1.293244    -4.239486
H    -5.466043     1.789313    -5.139425
C     4.036040    -3.265622     1.641532
H     3.267809    -3.723338     1.010415
C     0.018627    -1.146394     3.982695
H    -0.554692    -1.644611     3.196672
C     4.615123     1.046141     4.228784
H     5.626865     0.814265     3.872267
C    -0.645843     0.978205    -4.354860
H     0.406057     1.051600    -4.644463
H    -1.201617     1.673075    -4.994802
H    -0.746550     1.299244    -3.315995
C    -1.034311    -0.915298    -5.982374
H    -0.000559    -0.819411    -6.329820
H    -1.341503    -1.957557    -6.114946
H    -1.673059    -0.295118    -6.623457
C    -5.643479    -3.801255    -2.256302
H    -5.191041    -4.257084    -3.144243
H    -5.938720    -4.604416    -1.570133
H    -6.552722    -3.277264    -2.574814
C    -5.251232    -2.254353    -0.275802
H    -5.426268    -3.049274     0.458064
H    -4.567433    -1.526850     0.169864
H    -6.211148    -1.754923    -0.454898
C    -5.989430     2.368747    -3.145031
H    -6.706589     3.145752    -3.439298
H    -6.339163     1.924847    -2.204720
H    -5.020818     2.846848    -2.956060
C    -7.227548     0.699571    -4.595828
H    -7.711690     0.249954    -3.721119
H    -7.896998     1.479854    -4.977012
H    -7.133139    -0.077181    -5.361883
C     4.512146    -4.324694     2.658229
H     3.692879    -4.665771     3.296529
H     4.927198    -5.197957     2.141110
H     5.293223    -3.907737     3.305561
C     5.205731    -2.889607     0.715990
H     5.589058    -3.793508     0.229750
H     4.901601    -2.205150    -0.078819
H     6.041733    -2.432975     1.256928
C    -0.677083     0.192725     4.256839
H    -0.199534     0.750501     5.072070
H    -0.724741     0.830795     3.375237
H    -1.708495    -0.004393     4.564540
C    -0.062031    -2.016235     5.255803
H    -1.106021    -2.140539     5.562959
H     0.360042    -3.011283     5.096086
H     0.490102    -1.543189     6.077650
C     4.264760     2.453182     3.713332
H     4.952486     3.201503     4.123831
H     4.340252     2.496061     2.621364
H     3.247479     2.741983     4.005026
C     4.641408     1.019792     5.767867
H     3.658630     1.271480     6.183869
H     4.915483     0.026092     6.137543
H     5.366489     1.744476     6.156728
---
0 1
C    -4.240767     2.792087     1.954756
O    -5.370534     0.452369     3.272422
C    -4.385790    -0.170928     2.855476
C    -4.113254     1.496200     1.158518
H    -3.445822     1.671707     0.308161
H    -5.114864     1.303020     0.757513
N    -3.630172     0.339191     1.844265
C    -3.959243    -1.489448     3.413450
C    -3.153185    -2.385886     2.693740
C    -4.411509    -1.837673     4.693552
C    -2.800785    -3.611825     3.256303
H    -2.804968    -2.146816     1.696021
C    -4.045625    -3.058262     5.257569
H    -5.048409    -1.138753     5.226280
C    -3.240077    -3.947079     4.538575
H    -2.184556    -4.302269     2.690908
H    -4.391217    -3.318966     6.254290
H    -2.955067    -4.901399     4.973559
C    -5.034143     3.857808     1.373496
C    -5.177185     3.931253    -0.033364
C    -5.752322     4.788196     2.161216
C    -5.976712     4.897981    -0.617779
H    -4.639860     3.243271    -0.674509
C    -6.573826     5.732467     1.562657
H    -5.699396     4.743340     3.240356
C    -6.693440     5.817760     0.167247
H    -6.052840     4.939631    -1.700364
H    -7.135765     6.419244     2.189646
C    -7.545012     6.877217    -0.479513
H    -8.306164     7.259903     0.206886
H    -6.924359     7.727200    -0.793181
H    -8.044977     6.494767    -1.375610
H    -2.688747     0.000749     1.597582
C    -3.471715     3.015070     3.137709
F    -3.107857     2.031573     3.938374
F    -3.673215     4.114379     3.867303
$end

$rem
jobtype         eda
eda2            2
eda_cls_disp    true
method          m062x
basis           6-311G(d,p)
frgm_method     gia
frgm_lpcorr     rs_exact_scf
eda_bsse        false
ithrsh          12
thresh          14
scf_print_frgm  1
unrestricted    false
max_scf_cycles  300
symmetry        false
sym_ignore      true
mem_total       10000
mem_static      5000
solvent_method  smd
$end

$smx
solvent toluene
$end

--------------------------------------------------------------
 ----------------------------------------------------------------
             Standard Nuclear Orientation (Angstroms)
    I     Atom           X                Y                Z
 ----------------------------------------------------------------
    1      P      -0.5830420000    -0.9105610000    -0.1959070000
    2      O      -1.0811240000    -0.1487600000     1.0095700000
    3      O      -0.1350600000    -0.1998460000    -1.4301640000
    4      O      -1.7383100000    -2.0503000000    -0.5047680000
    5      O       0.7140030000    -1.8649210000     0.2420160000
    6      C       0.5595850000    -3.0683350000     0.8918180000
    7      C       1.1579040000    -3.1911560000     2.1780780000
    8      C       0.9961870000    -4.3781840000     2.8573820000
    9      H       1.4505290000    -4.4994000000     3.8361700000
   10      C       0.2410890000    -5.4518660000     2.3210520000
   11      C      -0.0004160000    -6.6331490000     3.0720510000
   12      H       0.4217620000    -6.7076710000     4.0715990000
   13      C      -0.7620270000    -7.6562230000     2.5552220000
   14      H      -0.9465450000    -8.5522490000     3.1413100000
   15      C      -1.3145680000    -7.5356250000     1.2577540000
   16      H      -1.9284770000    -8.3380200000     0.8579680000
   17      C      -1.0882220000    -6.4084060000     0.4992890000
   18      H      -1.5245530000    -6.3246440000    -0.4894490000
   19      C      -0.3008770000    -5.3345020000     0.9998680000
   20      C      -0.0734320000    -4.1275770000     0.2567240000
   21      C      -0.5218940000    -3.9870740000    -1.1563210000
   22      C      -1.3845120000    -2.9612040000    -1.4947060000
   23      C      -1.9393000000    -2.7893630000    -2.7907490000
   24      C      -1.5562370000    -3.6898920000    -3.7622730000
   25      H      -1.9826340000    -3.6070630000    -4.7574730000
   26      C      -0.5911920000    -4.6997940000    -3.5148560000
   27      C      -0.1305530000    -5.5479620000    -4.5567670000
   28      H      -0.5522220000    -5.4238090000    -5.5513380000
   29      C       0.8438190000    -6.4906090000    -4.3224190000
   30      H       1.1957880000    -7.1265540000    -5.1299970000
   31      C       1.4022010000    -6.6206010000    -3.0286110000
   32      H       2.1878110000    -7.3505070000    -2.8527760000
   33      C       0.9663190000    -5.8243950000    -1.9929560000
   34      H       1.4103620000    -5.9233450000    -1.0089090000
   35      C      -0.0500110000    -4.8529500000    -2.1977460000
   36      C      -2.9137880000    -1.6937040000    -3.0874100000
   37      C      -2.5542810000    -0.6436120000    -3.9634620000
   38      C      -4.2147130000    -1.7385990000    -2.5351610000
   39      C      -3.5349250000     0.2859940000    -4.3294900000
   40      C      -5.1467920000    -0.7669530000    -2.9122930000
   41      C      -4.8357520000     0.2397320000    -3.8289490000
   42      H      -3.2747680000     1.0785540000    -5.0266280000
   43      H      -6.1483010000    -0.8153060000    -2.4938310000
   44      C       2.0186390000    -2.0833310000     2.7044780000
   45      C       1.4700310000    -1.0597020000     3.5131530000
   46      C       3.3973540000    -2.0933220000     2.3921930000
   47      C       2.3170160000    -0.0419950000     3.9689900000
   48      C       4.2028760000    -1.0628680000     2.8929620000
   49      C       3.6857030000    -0.0261800000     3.6729410000
   50      H       1.9049540000     0.7413120000     4.5987100000
   51      H       5.2676190000    -1.0731330000     2.6906580000
   52      C      -1.1388180000    -0.4725090000    -4.5109610000
   53      H      -0.4712940000    -1.1014680000    -3.9161450000
   54      C      -4.6587690000    -2.8355710000    -1.5714320000
   55      H      -3.7837280000    -3.4229880000    -1.2841310000
   56      C      -5.8546870000     1.2932440000    -4.2394860000
   57      H      -5.4660430000     1.7893130000    -5.1394250000
   58      C       4.0360400000    -3.2656220000     1.6415320000
   59      H       3.2678090000    -3.7233380000     1.0104150000
   60      C       0.0186270000    -1.1463940000     3.9826950000
   61      H      -0.5546920000    -1.6446110000     3.1966720000
   62      C       4.6151230000     1.0461410000     4.2287840000
   63      H       5.6268650000     0.8142650000     3.8722670000
   64      C      -0.6458430000     0.9782050000    -4.3548600000
   65      H       0.4060570000     1.0516000000    -4.6444630000
   66      H      -1.2016170000     1.6730750000    -4.9948020000
   67      H      -0.7465500000     1.2992440000    -3.3159950000
   68      C      -1.0343110000    -0.9152980000    -5.9823740000
   69      H      -0.0005590000    -0.8194110000    -6.3298200000
   70      H      -1.3415030000    -1.9575570000    -6.1149460000
   71      H      -1.6730590000    -0.2951180000    -6.6234570000
   72      C      -5.6434790000    -3.8012550000    -2.2563020000
   73      H      -5.1910410000    -4.2570840000    -3.1442430000
   74      H      -5.9387200000    -4.6044160000    -1.5701330000
   75      H      -6.5527220000    -3.2772640000    -2.5748140000
   76      C      -5.2512320000    -2.2543530000    -0.2758020000
   77      H      -5.4262680000    -3.0492740000     0.4580640000
   78      H      -4.5674330000    -1.5268500000     0.1698640000
   79      H      -6.2111480000    -1.7549230000    -0.4548980000
   80      C      -5.9894300000     2.3687470000    -3.1450310000
   81      H      -6.7065890000     3.1457520000    -3.4392980000
   82      H      -6.3391630000     1.9248470000    -2.2047200000
   83      H      -5.0208180000     2.8468480000    -2.9560600000
   84      C      -7.2275480000     0.6995710000    -4.5958280000
   85      H      -7.7116900000     0.2499540000    -3.7211190000
   86      H      -7.8969980000     1.4798540000    -4.9770120000
   87      H      -7.1331390000    -0.0771810000    -5.3618830000
   88      C       4.5121460000    -4.3246940000     2.6582290000
   89      H       3.6928790000    -4.6657710000     3.2965290000
   90      H       4.9271980000    -5.1979570000     2.1411100000
   91      H       5.2932230000    -3.9077370000     3.3055610000
   92      C       5.2057310000    -2.8896070000     0.7159900000
   93      H       5.5890580000    -3.7935080000     0.2297500000
   94      H       4.9016010000    -2.2051500000    -0.0788190000
   95      H       6.0417330000    -2.4329750000     1.2569280000
   96      C      -0.6770830000     0.1927250000     4.2568390000
   97      H      -0.1995340000     0.7505010000     5.0720700000
   98      H      -0.7247410000     0.8307950000     3.3752370000
   99      H      -1.7084950000    -0.0043930000     4.5645400000
  100      C      -0.0620310000    -2.0162350000     5.2558030000
  101      H      -1.1060210000    -2.1405390000     5.5629590000
  102      H       0.3600420000    -3.0112830000     5.0960860000
  103      H       0.4901020000    -1.5431890000     6.0776500000
  104      C       4.2647600000     2.4531820000     3.7133320000
  105      H       4.9524860000     3.2015030000     4.1238310000
  106      H       4.3402520000     2.4960610000     2.6213640000
  107      H       3.2474790000     2.7419830000     4.0050260000
  108      C       4.6414080000     1.0197920000     5.7678670000
  109      H       3.6586300000     1.2714800000     6.1838690000
  110      H       4.9154830000     0.0260920000     6.1375430000
  111      H       5.3664890000     1.7444760000     6.1567280000
  112      C      -4.2407670000     2.7920870000     1.9547560000
  113      O      -5.3705340000     0.4523690000     3.2724220000
  114      C      -4.3857900000    -0.1709280000     2.8554760000
  115      C      -4.1132540000     1.4962000000     1.1585180000
  116      H      -3.4458220000     1.6717070000     0.3081610000
  117      H      -5.1148640000     1.3030200000     0.7575130000
  118      N      -3.6301720000     0.3391910000     1.8442650000
  119      C      -3.9592430000    -1.4894480000     3.4134500000
  120      C      -3.1531850000    -2.3858860000     2.6937400000
  121      C      -4.4115090000    -1.8376730000     4.6935520000
  122      C      -2.8007850000    -3.6118250000     3.2563030000
  123      H      -2.8049680000    -2.1468160000     1.6960210000
  124      C      -4.0456250000    -3.0582620000     5.2575690000
  125      H      -5.0484090000    -1.1387530000     5.2262800000
  126      C      -3.2400770000    -3.9470790000     4.5385750000
  127      H      -2.1845560000    -4.3022690000     2.6909080000
  128      H      -4.3912170000    -3.3189660000     6.2542900000
  129      H      -2.9550670000    -4.9013990000     4.9735590000
  130      C      -5.0341430000     3.8578080000     1.3734960000
  131      C      -5.1771850000     3.9312530000    -0.0333640000
  132      C      -5.7523220000     4.7881960000     2.1612160000
  133      C      -5.9767120000     4.8979810000    -0.6177790000
  134      H      -4.6398600000     3.2432710000    -0.6745090000
  135      C      -6.5738260000     5.7324670000     1.5626570000
  136      H      -5.6993960000     4.7433400000     3.2403560000
  137      C      -6.6934400000     5.8177600000     0.1672470000
  138      H      -6.0528400000     4.9396310000    -1.7003640000
  139      H      -7.1357650000     6.4192440000     2.1896460000
  140      C      -7.5450120000     6.8772170000    -0.4795130000
  141      H      -8.3061640000     7.2599030000     0.2068860000
  142      H      -6.9243590000     7.7272000000    -0.7931810000
  143      H      -8.0449770000     6.4947670000    -1.3756100000
  144      H      -2.6887470000     0.0007490000     1.5975820000
  145      C      -3.4717150000     3.0150700000     3.1377090000
  146      F      -3.1078570000     2.0315730000     3.9383740000
  147      F      -3.6732150000     4.1143790000     3.8673030000
 ----------------------------------------------------------------
 Nuclear Repulsion Energy =       13938.56254928 hartrees
 There are      277 alpha and      277 beta electrons
 Requested basis set is 6-311G(d,p)
 There are 671 shells and 1802 basis functions

 Total QAlloc Memory Limit  10000 MB
 Mega-Array Size      4888 MB
 MEM_STATIC part      5000 MB
 
 Citation of the SMD model:
 Marenich, A.V.; Cramer, C.J.; Truhlar, D.G.
 J. Phys. Chem. B 2009, 113, 6378-6396.
 iSolventCode=         168
 Solvent: toluene                                                         
 
 vradii
            1           2           3           4           5           6
    1   2.1200000   2.2940000   2.2940000   2.2940000   2.2940000   1.8500000
            7           8           9          10          11          12
    1   1.8500000   1.8500000   1.2000000   1.8500000   1.8500000   1.2000000
           13          14          15          16          17          18
    1   1.8500000   1.2000000   1.8500000   1.2000000   1.8500000   1.2000000
           19          20          21          22          23          24
    1   1.8500000   1.8500000   1.8500000   1.8500000   1.8500000   1.8500000
           25          26          27          28          29          30
    1   1.2000000   1.8500000   1.8500000   1.2000000   1.8500000   1.2000000
           31          32          33          34          35          36
    1   1.8500000   1.2000000   1.8500000   1.2000000   1.8500000   1.8500000
           37          38          39          40          41          42
    1   1.8500000   1.8500000   1.8500000   1.8500000   1.8500000   1.2000000
           43          44          45          46          47          48
    1   1.2000000   1.8500000   1.8500000   1.8500000   1.8500000   1.8500000
           49          50          51          52          53          54
    1   1.8500000   1.2000000   1.2000000   1.8500000   1.2000000   1.8500000
           55          56          57          58          59          60
    1   1.2000000   1.8500000   1.2000000   1.8500000   1.2000000   1.8500000
           61          62          63          64          65          66
    1   1.2000000   1.8500000   1.2000000   1.8500000   1.2000000   1.2000000
           67          68          69          70          71          72
    1   1.2000000   1.8500000   1.2000000   1.2000000   1.2000000   1.8500000
           73          74          75          76          77          78
    1   1.2000000   1.2000000   1.2000000   1.8500000   1.2000000   1.2000000
           79          80          81          82          83          84
    1   1.2000000   1.8500000   1.2000000   1.2000000   1.2000000   1.8500000
           85          86          87          88          89          90
    1   1.2000000   1.2000000   1.2000000   1.8500000   1.2000000   1.2000000
           91          92          93          94          95          96
    1   1.2000000   1.8500000   1.2000000   1.2000000   1.2000000   1.8500000
           97          98          99         100         101         102
    1   1.2000000   1.2000000   1.2000000   1.8500000   1.2000000   1.2000000
          103         104         105         106         107         108
    1   1.2000000   1.8500000   1.2000000   1.2000000   1.2000000   1.8500000
          109         110         111         112         113         114
    1   1.2000000   1.2000000   1.2000000   1.8500000   2.2940000   1.8500000
          115         116         117         118         119         120
    1   1.8500000   1.2000000   1.2000000   1.8900000   1.8500000   1.8500000
          121         122         123         124         125         126
    1   1.8500000   1.8500000   1.2000000   1.8500000   1.2000000   1.8500000
          127         128         129         130         131         132
    1   1.2000000   1.2000000   1.2000000   1.8500000   1.8500000   1.8500000
          133         134         135         136         137         138
    1   1.8500000   1.2000000   1.8500000   1.2000000   1.8500000   1.2000000
          139         140         141         142         143         144
    1   1.2000000   1.8500000   1.2000000   1.2000000   1.2000000   1.2000000
          145         146         147
    1   1.8500000   1.7300000   1.7300000
 Changing PCM_VDW_RADII to SMD_RADIUS
 Discretize the solute cavity surface with Lebedev spheres
	Using 110 Lebedev grid points for each H atom
	Using 194 Lebedev grid points for other atoms
	Atomic van der Waals radii will be scaled by 1.20
 Remove points where switching function is < 1.0e-08
 Keep 9082 surface tesserae and discard 13472 interior tesserae
 Molecular Surface Area = 1041.927 Angst**2
 A cutoff of  1.0D-14 yielded  84268 shell pairs
 There are    610011 function pairs (    655787 Cartesian)
 Smallest overlap matrix eigenvalue = 6.71E-05

 Scale SEOQF with 1.000000e-02/1.000000e-02/1.000000e-02

 Standard Electronic Orientation quadrupole field applied
 Nucleus-field energy     =     0.0000000169 hartrees

 -----------------------------------------------------------------------
  General SCF calculation program by
  Eric Jon Sundstrom, Paul Horn, Yuezhi Mao, Dmitri Zuev, Alec White,
  David Stuck, Shaama M.S., Shane Yost, Joonho Lee, David Small,
  Daniel Levine, Susi Lehtola, Hugh Burton, Evgeny Epifanovsky,
  Bang C. Huynh
 -----------------------------------------------------------------------
================================================================
                 ALMO-EDA with the EDA2 driver                  
================================================================
 The second-generation ALMO-EDA (for DFT):                      
 P. R. Horn, Y. Mao and M. Head-Gordon, PCCP, 18, 23067 (2016)  
 Decomposition of the frozen energy:                            
 P. R. Horn, Y. Mao and M. Head-Gordon, JCP, 144, 114107 (2016) 
Using eda2 option set 2
Option set summary: Frozen orbital wavefunction, initial wavefunction decomposition, and traditional AO-based POL.
--------------------------------
Printing EDA Options
--------------------------------
eda_child_super_basis      0
fragmo_guess_mode          0
child_mp                   0
child_mp_orders            0
cls_elec                   1
cls_disp                   1
scfmi_mode                 1
scfmi_occs                 0
scfmi_virts                0
frz_relax                  0
frz_relax_method           0
dc_pen_start               0
dc_pen_conv                0
dc_pen_increment           0
dc_pen_steps               0
dc_pen_thresh_factor       0
dc_pen_pre_newton_thresh   0
frz_ortho_decomp           1
frz_ortho_decomp_conv      6
plot_mo_ortho_frz          0
frgm_method                2
scfmi_freeze_ss            0
separate_rehyb             0
plot_diff_den              0
eda_nocv                   0
eda_vct_relax              1
disp_free_x                0
disp_free_c                0
eda_bsse                   0
eda_pct_a                  0
eda_covp                   0
--------------------------------
Attempting to make child job directory: /scratch/slurm-2254614/qchem154571//Frg1/
Attempting to make child job directory: /scratch/slurm-2254614/qchem154571//Frg2/
Creating input file /scratch/slurm-2254614/qchem154571/Frg1.input
using default PutDataFrgm: nothing
calling putenv with: QCSCRATCH=/scratch/slurm-2254614/qchem154571/ 
calling putenv with: QCLOCALSCR=/scratch/slurm-2254614/qchem154571/ 
Spawning Job For Fragment 0
                  Welcome to Q-Chem
     A Quantum Leap Into The Future Of Chemistry


 Q-Chem 5.3, Q-Chem, Inc., Pleasanton, CA (2020)

 License issued to: SRG Peng Liu, University of Pittsburgh

 Yihan Shao,  Zhengting Gan,  E. Epifanovsky,  A. T. B. Gilbert,  M. Wormit,  
 J. Kussmann,  A. W. Lange,  A. Behn,  Jia Deng,  Xintian Feng,  D. Ghosh,  
 M. Goldey,  P. R. Horn,  L. D. Jacobson,  I. Kaliman,  T. Kus,  A. Landau,  
 Jie Liu,  E. I. Proynov,  R. M. Richard,  R. P. Steele,  E. J. Sundstrom,  
 H. L. Woodcock III,  P. M. Zimmerman,  D. Zuev,  B. Alam,  B. Albrecht,  
 A. Aldossary,  E. Alguire,  S. A. Baeppler,  D. Barton,  Z. Benda,  
 Y. A. Bernard,  E. J. Berquist,  K. B. Bravaya,  H. Burton,  K. Carter-Fenk,  
 D. Casanova,  Chun-Min Chang,  Yunqing Chen,  A. Chien,  K. D. Closser,  
 M. P. Coons,  S. Coriani,  S. Dasgupta,  A. L. Dempwolff,  M. Diedenhofen,  
 Hainam Do,  R. G. Edgar,  Po-Tung Fang,  S. Faraji,  S. Fatehi,  
 Qingguo Feng,  J. Fosso-Tande,  J. Gayvert,  Qinghui Ge,  A. Ghysels,  
 G. Gidofalvi,  J. Gomes,  J. Gonthier,  S. Gulania,  A. Gunina,  D. Hait,  
 M. W. D. Hanson-Heine,  S. Hammes-Schiffer,  P. H. P. Harbach,  
 A. W. Hauser,  M. F. Herbst,  J. E. Herr,  E. G. Hohenstein,  Z. C. Holden,  
 S. Houck,  Kerwin Hui,  B. C. Huynh,  M. Ivanov,  T.-C. Jagau,  Hyunjun Ji,  
 B. Kaduk,  K. Khistyaev,  Jaehoon Kim,  P. Klunzinger,  K. Koh,  
 D. Kosenkov,  L. Koulias,  T. Kowalczyk,  C. M. Krauter,  A. Kunitsa,  
 Ka Un Lao,  A. Laurent,  K. V. Lawler,  Joonho Lee,  D. Lefrancois,  
 S. Lehtola,  D. S. Levine,  Yi-Pei Li,  You-Sheng Lin,  Fenglai Liu,  
 Kuan-Yu Liu,  E. Livshits,  M. Loipersberger,  A. Luenser,  P. Manohar,  
 E. Mansoor,  S. F. Manzer,  Shan-Ping Mao,  Yuezhi Mao,  N. Mardirossian,  
 A. V. Marenich,  T. Markovich,  L. A. Martinez-Martinez,  S. A. Maurer,  
 N. J. Mayhall,  S. C. McKenzie,  J.-M. Mewes,  P. Morgante,  A. F. Morrison,  
 J. W. Mullinax,  K. Nanda,  T. S. Nguyen-Beck,  R. Olivares-Amaya,  
 K. J. Oosterbaan,  J. A. Parkhill,  S. K. Paul,  F. Pavosevic,  Zheng Pei,  
 T. M. Perrine,  F. Plasser,  P. Pokhilko,  S. Prager,  A. Prociuk,  
 E. Ramos,  B. Rana,  D. R. Rehn,  F. Rob,  E. Rossomme,  M. Scheurer,  
 M. Schneider,  N. Sergueev,  S. M. Sharada,  S. Sharma,  W. Skomorowski,  
 D. W. Small,  T. Stauch,  C. J. Stein,  T. Stein,  Yu-Chuan Su,  
 S. P. Veccham,  Zhen Tao,  A. J. W. Thom,  A. Tkatchenko,  T. Tsuchimochi,  
 N. M. Tubman,  L. Vogt,  M. L. Vidal,  O. Vydrov,  M. A. Watson,  J. Wenzel,  
 M. de Wergifosse,  T. A. Wesolowski,  A. White,  J. Witte,  A. Yamada,  
 Jun Yang,  K. Yao,  S. Yeganeh,  S. R. Yost,  Zhi-Qiang You,  A. Zech,  
 Igor Ying Zhang,  Xing Zhang,  Yan Zhao,  Ying Zhu,  B. R. Brooks,  
 G. K. L. Chan,  C. J. Cramer,  M. S. Gordon,  W. J. Hehre,  A. Klamt,  
 M. W. Schmidt,  C. D. Sherrill,  D. G. Truhlar,  A. Aspuru-Guzik,  R. Baer,  
 A. T. Bell,  N. A. Besley,  Jeng-Da Chai,  A. E. DePrince, III,  
 R. A. DiStasio Jr.,  A. Dreuw,  B. D. Dunietz,  T. R. Furlani,  
 Chao-Ping Hsu,  Yousung Jung,  Jing Kong,  D. S. Lambrecht,  WanZhen Liang,  
 C. Ochsenfeld,  V. A. Rassolov,  L. V. Slipchenko,  J. E. Subotnik,  
 T. Van Voorhis,  J. M. Herbert,  A. I. Krylov,  P. M. W. Gill,  M. Head-Gordon

 Contributors to earlier versions of Q-Chem not listed above: 
 R. D. Adamson,  B. Austin,  J. Baker,  G. J. O. Beran,  K. Brandhorst,  
 S. T. Brown,  E. F. C. Byrd,  A. K. Chakraborty,  C.-L. Cheng,  
 Siu Hung Chien,  D. M. Chipman,  D. L. Crittenden,  H. Dachsel,  
 R. J. Doerksen,  A. D. Dutoi,  L. Fusti-Molnar,  W. A. Goddard III,  
 A. Golubeva-Zadorozhnaya,  S. R. Gwaltney,  G. Hawkins,  A. Heyden,  
 S. Hirata,  G. Kedziora,  F. J. Keil,  C. Kelley,  Jihan Kim,  R. A. King,  
 R. Z. Khaliullin,  P. P. Korambath,  W. Kurlancheek,  A. M. Lee,  M. S. Lee,  
 S. V. Levchenko,  Ching Yeh Lin,  D. Liotard,  R. C. Lochan,  I. Lotan,  
 P. E. Maslen,  N. Nair,  D. P. O'Neill,  D. Neuhauser,  E. Neuscamman,  
 C. M. Oana,  R. Olson,  B. Peters,  R. Peverati,  P. A. Pieniazek,  
 Y. M. Rhee,  J. Ritchie,  M. A. Rohrdanz,  E. Rosta,  N. J. Russ,  
 H. F. Schaefer III,  N. E. Schultz,  N. Shenvi,  A. C. Simmonett,  A. Sodt,  
 D. Stuck,  K. S. Thanthiriwatte,  V. Vanovschi,  Tao Wang,  A. Warshel,  
 C. F. Williams,  Q. Wu,  X. Xu,  W. Zhang

 Please cite Q-Chem as follows:
 Y. Shao et al., Mol. Phys. 113, 184-215 (2015)
 DOI: 10.1080/00268976.2014.952696

 Q-Chem 5.3.0 for Intel X86 EM64T Linux

 Parts of Q-Chem use Armadillo 9.800.1 (Horizon Scraper).
 http://arma.sourceforge.net/

 Q-Chem begins on Sun Jan 17 00:40:54 2021  

Host: 
0

     Scratch files written to /scratch/slurm-2254614/qchem154571//Frg1//
 Jun1620 |scratch|qcdevops|jenkins|workspace|build_RNUM 7366   
Processing $rem in /ihome/crc/install/qchem/5.3/config/preferences:
Processing $rem in /ihome/pliu/bim12/.qchemrc:
Symmetry turned off for PCM/SM12/SMD calculation

Checking the input file for inconsistencies... 	...done.

--------------------------------------------------------------
User input:
--------------------------------------------------------------
$molecule
-1 1
 15	-0.5830420000	-0.9105610000	-0.1959070000
 8	-1.0811240000	-0.1487600000	1.0095700000
 8	-0.1350600000	-0.1998460000	-1.4301640000
 8	-1.7383100000	-2.0503000000	-0.5047680000
 8	0.7140030000	-1.8649210000	0.2420160000
 6	0.5595850000	-3.0683350000	0.8918180000
 6	1.1579040000	-3.1911560000	2.1780780000
 6	0.9961870000	-4.3781840000	2.8573820000
 1	1.4505290000	-4.4994000000	3.8361700000
 6	0.2410890000	-5.4518660000	2.3210520000
 6	-0.0004160000	-6.6331490000	3.0720510000
 1	0.4217620000	-6.7076710000	4.0715990000
 6	-0.7620270000	-7.6562230000	2.5552220000
 1	-0.9465450000	-8.5522490000	3.1413100000
 6	-1.3145680000	-7.5356250000	1.2577540000
 1	-1.9284770000	-8.3380200000	0.8579680000
 6	-1.0882220000	-6.4084060000	0.4992890000
 1	-1.5245530000	-6.3246440000	-0.4894490000
 6	-0.3008770000	-5.3345020000	0.9998680000
 6	-0.0734320000	-4.1275770000	0.2567240000
 6	-0.5218940000	-3.9870740000	-1.1563210000
 6	-1.3845120000	-2.9612040000	-1.4947060000
 6	-1.9393000000	-2.7893630000	-2.7907490000
 6	-1.5562370000	-3.6898920000	-3.7622730000
 1	-1.9826340000	-3.6070630000	-4.7574730000
 6	-0.5911920000	-4.6997940000	-3.5148560000
 6	-0.1305530000	-5.5479620000	-4.5567670000
 1	-0.5522220000	-5.4238090000	-5.5513380000
 6	0.8438190000	-6.4906090000	-4.3224190000
 1	1.1957880000	-7.1265540000	-5.1299970000
 6	1.4022010000	-6.6206010000	-3.0286110000
 1	2.1878110000	-7.3505070000	-2.8527760000
 6	0.9663190000	-5.8243950000	-1.9929560000
 1	1.4103620000	-5.9233450000	-1.0089090000
 6	-0.0500110000	-4.8529500000	-2.1977460000
 6	-2.9137880000	-1.6937040000	-3.0874100000
 6	-2.5542810000	-0.6436120000	-3.9634620000
 6	-4.2147130000	-1.7385990000	-2.5351610000
 6	-3.5349250000	0.2859940000	-4.3294900000
 6	-5.1467920000	-0.7669530000	-2.9122930000
 6	-4.8357520000	0.2397320000	-3.8289490000
 1	-3.2747680000	1.0785540000	-5.0266280000
 1	-6.1483010000	-0.8153060000	-2.4938310000
 6	2.0186390000	-2.0833310000	2.7044780000
 6	1.4700310000	-1.0597020000	3.5131530000
 6	3.3973540000	-2.0933220000	2.3921930000
 6	2.3170160000	-0.0419950000	3.9689900000
 6	4.2028760000	-1.0628680000	2.8929620000
 6	3.6857030000	-0.0261800000	3.6729410000
 1	1.9049540000	0.7413120000	4.5987100000
 1	5.2676190000	-1.0731330000	2.6906580000
 6	-1.1388180000	-0.4725090000	-4.5109610000
 1	-0.4712940000	-1.1014680000	-3.9161450000
 6	-4.6587690000	-2.8355710000	-1.5714320000
 1	-3.7837280000	-3.4229880000	-1.2841310000
 6	-5.8546870000	1.2932440000	-4.2394860000
 1	-5.4660430000	1.7893130000	-5.1394250000
 6	4.0360400000	-3.2656220000	1.6415320000
 1	3.2678090000	-3.7233380000	1.0104150000
 6	0.0186270000	-1.1463940000	3.9826950000
 1	-0.5546920000	-1.6446110000	3.1966720000
 6	4.6151230000	1.0461410000	4.2287840000
 1	5.6268650000	0.8142650000	3.8722670000
 6	-0.6458430000	0.9782050000	-4.3548600000
 1	0.4060570000	1.0516000000	-4.6444630000
 1	-1.2016170000	1.6730750000	-4.9948020000
 1	-0.7465500000	1.2992440000	-3.3159950000
 6	-1.0343110000	-0.9152980000	-5.9823740000
 1	-0.0005590000	-0.8194110000	-6.3298200000
 1	-1.3415030000	-1.9575570000	-6.1149460000
 1	-1.6730590000	-0.2951180000	-6.6234570000
 6	-5.6434790000	-3.8012550000	-2.2563020000
 1	-5.1910410000	-4.2570840000	-3.1442430000
 1	-5.9387200000	-4.6044160000	-1.5701330000
 1	-6.5527220000	-3.2772640000	-2.5748140000
 6	-5.2512320000	-2.2543530000	-0.2758020000
 1	-5.4262680000	-3.0492740000	0.4580640000
 1	-4.5674330000	-1.5268500000	0.1698640000
 1	-6.2111480000	-1.7549230000	-0.4548980000
 6	-5.9894300000	2.3687470000	-3.1450310000
 1	-6.7065890000	3.1457520000	-3.4392980000
 1	-6.3391630000	1.9248470000	-2.2047200000
 1	-5.0208180000	2.8468480000	-2.9560600000
 6	-7.2275480000	0.6995710000	-4.5958280000
 1	-7.7116900000	0.2499540000	-3.7211190000
 1	-7.8969980000	1.4798540000	-4.9770120000
 1	-7.1331390000	-0.0771810000	-5.3618830000
 6	4.5121460000	-4.3246940000	2.6582290000
 1	3.6928790000	-4.6657710000	3.2965290000
 1	4.9271980000	-5.1979570000	2.1411100000
 1	5.2932230000	-3.9077370000	3.3055610000
 6	5.2057310000	-2.8896070000	0.7159900000
 1	5.5890580000	-3.7935080000	0.2297500000
 1	4.9016010000	-2.2051500000	-0.0788190000
 1	6.0417330000	-2.4329750000	1.2569280000
 6	-0.6770830000	0.1927250000	4.2568390000
 1	-0.1995340000	0.7505010000	5.0720700000
 1	-0.7247410000	0.8307950000	3.3752370000
 1	-1.7084950000	-0.0043930000	4.5645400000
 6	-0.0620310000	-2.0162350000	5.2558030000
 1	-1.1060210000	-2.1405390000	5.5629590000
 1	0.3600420000	-3.0112830000	5.0960860000
 1	0.4901020000	-1.5431890000	6.0776500000
 6	4.2647600000	2.4531820000	3.7133320000
 1	4.9524860000	3.2015030000	4.1238310000
 1	4.3402520000	2.4960610000	2.6213640000
 1	3.2474790000	2.7419830000	4.0050260000
 6	4.6414080000	1.0197920000	5.7678670000
 1	3.6586300000	1.2714800000	6.1838690000
 1	4.9154830000	0.0260920000	6.1375430000
 1	5.3664890000	1.7444760000	6.1567280000
$end
$rem
EDA2		2
EDA_CLS_DISP		TRUE
METHOD		M062X
BASIS		6-311G(D,P)
EDA_BSSE		FALSE
ITHRSH		12
THRESH		14
SCF_PRINT_FRGM		1
UNRESTRICTED		FALSE
MAX_SCF_CYCLES		300
SYMMETRY		FALSE
SYM_IGNORE		TRUE
SOLVENT_METHOD		SMD
!required keywords
JOBTYPE		SP
SYM_IGNORE		TRUE
SUBSYSTEM		TRUE
GEN_SCFMAN		TRUE
CHILD_INSTRUCTION		2
SYM_IGNORE		TRUE
SCFMI		0
RI_K 0		
PARI_K 0		
MIN_PARI_K 0		
IARI_K 0		
OCC_RI_K 0		
PURECART		1111
MEM_STATIC		5000
MEM_TOTAL		10000
GUI		0
CHILD_MP		0
CHILD_MP_ORDERS		0
FRZ_RELAX		0
FRZ_RELAX_METHOD		0
EDA_CLS_ELEC		1
EDA_CLS_DISP		1
FRZ_ORTHO_DECOMP		1
EDA2		FALSE
FRGM_METHOD		FALSE
CIS_N_ROOTS  0
LOCAL_CIS    0
CIS_RLX_DNS  1
ECP		0
$end
$smx
solvent toluene
$end
--------------------------------------------------------------
 ----------------------------------------------------------------
             Standard Nuclear Orientation (Angstroms)
    I     Atom           X                Y                Z
 ----------------------------------------------------------------
    1      P      -0.5830420000    -0.9105610000    -0.1959070000
    2      O      -1.0811240000    -0.1487600000     1.0095700000
    3      O      -0.1350600000    -0.1998460000    -1.4301640000
    4      O      -1.7383100000    -2.0503000000    -0.5047680000
    5      O       0.7140030000    -1.8649210000     0.2420160000
    6      C       0.5595850000    -3.0683350000     0.8918180000
    7      C       1.1579040000    -3.1911560000     2.1780780000
    8      C       0.9961870000    -4.3781840000     2.8573820000
    9      H       1.4505290000    -4.4994000000     3.8361700000
   10      C       0.2410890000    -5.4518660000     2.3210520000
   11      C      -0.0004160000    -6.6331490000     3.0720510000
   12      H       0.4217620000    -6.7076710000     4.0715990000
   13      C      -0.7620270000    -7.6562230000     2.5552220000
   14      H      -0.9465450000    -8.5522490000     3.1413100000
   15      C      -1.3145680000    -7.5356250000     1.2577540000
   16      H      -1.9284770000    -8.3380200000     0.8579680000
   17      C      -1.0882220000    -6.4084060000     0.4992890000
   18      H      -1.5245530000    -6.3246440000    -0.4894490000
   19      C      -0.3008770000    -5.3345020000     0.9998680000
   20      C      -0.0734320000    -4.1275770000     0.2567240000
   21      C      -0.5218940000    -3.9870740000    -1.1563210000
   22      C      -1.3845120000    -2.9612040000    -1.4947060000
   23      C      -1.9393000000    -2.7893630000    -2.7907490000
   24      C      -1.5562370000    -3.6898920000    -3.7622730000
   25      H      -1.9826340000    -3.6070630000    -4.7574730000
   26      C      -0.5911920000    -4.6997940000    -3.5148560000
   27      C      -0.1305530000    -5.5479620000    -4.5567670000
   28      H      -0.5522220000    -5.4238090000    -5.5513380000
   29      C       0.8438190000    -6.4906090000    -4.3224190000
   30      H       1.1957880000    -7.1265540000    -5.1299970000
   31      C       1.4022010000    -6.6206010000    -3.0286110000
   32      H       2.1878110000    -7.3505070000    -2.8527760000
   33      C       0.9663190000    -5.8243950000    -1.9929560000
   34      H       1.4103620000    -5.9233450000    -1.0089090000
   35      C      -0.0500110000    -4.8529500000    -2.1977460000
   36      C      -2.9137880000    -1.6937040000    -3.0874100000
   37      C      -2.5542810000    -0.6436120000    -3.9634620000
   38      C      -4.2147130000    -1.7385990000    -2.5351610000
   39      C      -3.5349250000     0.2859940000    -4.3294900000
   40      C      -5.1467920000    -0.7669530000    -2.9122930000
   41      C      -4.8357520000     0.2397320000    -3.8289490000
   42      H      -3.2747680000     1.0785540000    -5.0266280000
   43      H      -6.1483010000    -0.8153060000    -2.4938310000
   44      C       2.0186390000    -2.0833310000     2.7044780000
   45      C       1.4700310000    -1.0597020000     3.5131530000
   46      C       3.3973540000    -2.0933220000     2.3921930000
   47      C       2.3170160000    -0.0419950000     3.9689900000
   48      C       4.2028760000    -1.0628680000     2.8929620000
   49      C       3.6857030000    -0.0261800000     3.6729410000
   50      H       1.9049540000     0.7413120000     4.5987100000
   51      H       5.2676190000    -1.0731330000     2.6906580000
   52      C      -1.1388180000    -0.4725090000    -4.5109610000
   53      H      -0.4712940000    -1.1014680000    -3.9161450000
   54      C      -4.6587690000    -2.8355710000    -1.5714320000
   55      H      -3.7837280000    -3.4229880000    -1.2841310000
   56      C      -5.8546870000     1.2932440000    -4.2394860000
   57      H      -5.4660430000     1.7893130000    -5.1394250000
   58      C       4.0360400000    -3.2656220000     1.6415320000
   59      H       3.2678090000    -3.7233380000     1.0104150000
   60      C       0.0186270000    -1.1463940000     3.9826950000
   61      H      -0.5546920000    -1.6446110000     3.1966720000
   62      C       4.6151230000     1.0461410000     4.2287840000
   63      H       5.6268650000     0.8142650000     3.8722670000
   64      C      -0.6458430000     0.9782050000    -4.3548600000
   65      H       0.4060570000     1.0516000000    -4.6444630000
   66      H      -1.2016170000     1.6730750000    -4.9948020000
   67      H      -0.7465500000     1.2992440000    -3.3159950000
   68      C      -1.0343110000    -0.9152980000    -5.9823740000
   69      H      -0.0005590000    -0.8194110000    -6.3298200000
   70      H      -1.3415030000    -1.9575570000    -6.1149460000
   71      H      -1.6730590000    -0.2951180000    -6.6234570000
   72      C      -5.6434790000    -3.8012550000    -2.2563020000
   73      H      -5.1910410000    -4.2570840000    -3.1442430000
   74      H      -5.9387200000    -4.6044160000    -1.5701330000
   75      H      -6.5527220000    -3.2772640000    -2.5748140000
   76      C      -5.2512320000    -2.2543530000    -0.2758020000
   77      H      -5.4262680000    -3.0492740000     0.4580640000
   78      H      -4.5674330000    -1.5268500000     0.1698640000
   79      H      -6.2111480000    -1.7549230000    -0.4548980000
   80      C      -5.9894300000     2.3687470000    -3.1450310000
   81      H      -6.7065890000     3.1457520000    -3.4392980000
   82      H      -6.3391630000     1.9248470000    -2.2047200000
   83      H      -5.0208180000     2.8468480000    -2.9560600000
   84      C      -7.2275480000     0.6995710000    -4.5958280000
   85      H      -7.7116900000     0.2499540000    -3.7211190000
   86      H      -7.8969980000     1.4798540000    -4.9770120000
   87      H      -7.1331390000    -0.0771810000    -5.3618830000
   88      C       4.5121460000    -4.3246940000     2.6582290000
   89      H       3.6928790000    -4.6657710000     3.2965290000
   90      H       4.9271980000    -5.1979570000     2.1411100000
   91      H       5.2932230000    -3.9077370000     3.3055610000
   92      C       5.2057310000    -2.8896070000     0.7159900000
   93      H       5.5890580000    -3.7935080000     0.2297500000
   94      H       4.9016010000    -2.2051500000    -0.0788190000
   95      H       6.0417330000    -2.4329750000     1.2569280000
   96      C      -0.6770830000     0.1927250000     4.2568390000
   97      H      -0.1995340000     0.7505010000     5.0720700000
   98      H      -0.7247410000     0.8307950000     3.3752370000
   99      H      -1.7084950000    -0.0043930000     4.5645400000
  100      C      -0.0620310000    -2.0162350000     5.2558030000
  101      H      -1.1060210000    -2.1405390000     5.5629590000
  102      H       0.3600420000    -3.0112830000     5.0960860000
  103      H       0.4901020000    -1.5431890000     6.0776500000
  104      C       4.2647600000     2.4531820000     3.7133320000
  105      H       4.9524860000     3.2015030000     4.1238310000
  106      H       4.3402520000     2.4960610000     2.6213640000
  107      H       3.2474790000     2.7419830000     4.0050260000
  108      C       4.6414080000     1.0197920000     5.7678670000
  109      H       3.6586300000     1.2714800000     6.1838690000
  110      H       4.9154830000     0.0260920000     6.1375430000
  111      H       5.3664890000     1.7444760000     6.1567280000
 ----------------------------------------------------------------
 Nuclear Repulsion Energy =        8219.26011745 hartrees
 There are      202 alpha and      202 beta electrons
 Requested basis set is 6-311G(d,p)
 There are 506 shells and 1334 basis functions

 Total QAlloc Memory Limit  10000 MB
 Mega-Array Size      4888 MB
 MEM_STATIC part      5000 MB
 
 Citation of the SMD model:
 Marenich, A.V.; Cramer, C.J.; Truhlar, D.G.
 J. Phys. Chem. B 2009, 113, 6378-6396.
 iSolventCode=         168
 Solvent: toluene                                                         
 
 vradii
            1           2           3           4           5           6
    1   2.1200000   2.2940000   2.2940000   2.2940000   2.2940000   1.8500000
            7           8           9          10          11          12
    1   1.8500000   1.8500000   1.2000000   1.8500000   1.8500000   1.2000000
           13          14          15          16          17          18
    1   1.8500000   1.2000000   1.8500000   1.2000000   1.8500000   1.2000000
           19          20          21          22          23          24
    1   1.8500000   1.8500000   1.8500000   1.8500000   1.8500000   1.8500000
           25          26          27          28          29          30
    1   1.2000000   1.8500000   1.8500000   1.2000000   1.8500000   1.2000000
           31          32          33          34          35          36
    1   1.8500000   1.2000000   1.8500000   1.2000000   1.8500000   1.8500000
           37          38          39          40          41          42
    1   1.8500000   1.8500000   1.8500000   1.8500000   1.8500000   1.2000000
           43          44          45          46          47          48
    1   1.2000000   1.8500000   1.8500000   1.8500000   1.8500000   1.8500000
           49          50          51          52          53          54
    1   1.8500000   1.2000000   1.2000000   1.8500000   1.2000000   1.8500000
           55          56          57          58          59          60
    1   1.2000000   1.8500000   1.2000000   1.8500000   1.2000000   1.8500000
           61          62          63          64          65          66
    1   1.2000000   1.8500000   1.2000000   1.8500000   1.2000000   1.2000000
           67          68          69          70          71          72
    1   1.2000000   1.8500000   1.2000000   1.2000000   1.2000000   1.8500000
           73          74          75          76          77          78
    1   1.2000000   1.2000000   1.2000000   1.8500000   1.2000000   1.2000000
           79          80          81          82          83          84
    1   1.2000000   1.8500000   1.2000000   1.2000000   1.2000000   1.8500000
           85          86          87          88          89          90
    1   1.2000000   1.2000000   1.2000000   1.8500000   1.2000000   1.2000000
           91          92          93          94          95          96
    1   1.2000000   1.8500000   1.2000000   1.2000000   1.2000000   1.8500000
           97          98          99         100         101         102
    1   1.2000000   1.2000000   1.2000000   1.8500000   1.2000000   1.2000000
          103         104         105         106         107         108
    1   1.2000000   1.8500000   1.2000000   1.2000000   1.2000000   1.8500000
          109         110         111
    1   1.2000000   1.2000000   1.2000000
 Changing PCM_VDW_RADII to SMD_RADIUS
 Discretize the solute cavity surface with Lebedev spheres
	Using 110 Lebedev grid points for each H atom
	Using 194 Lebedev grid points for other atoms
	Atomic van der Waals radii will be scaled by 1.20
 Remove points where switching function is < 1.0e-08
 Keep 6834 surface tesserae and discard 9996 interior tesserae
 Molecular Surface Area = 785.981 Angst**2
 A cutoff of  1.0D-14 yielded  54227 shell pairs
 There are    389899 function pairs (    420109 Cartesian)
 Smallest overlap matrix eigenvalue = 6.91E-05

 Scale SEOQF with 1.000000e-02/1.000000e-02/1.000000e-02

 Standard Electronic Orientation quadrupole field applied
 Nucleus-field energy     =     0.0000000039 hartrees
 Guess from superposition of atomic densities
 Warning:  Energy on first SCF cycle will be non-variational
 SAD guess density has 403.000000 electrons

 -----------------------------------------------------------------------
  General SCF calculation program by
  Eric Jon Sundstrom, Paul Horn, Yuezhi Mao, Dmitri Zuev, Alec White,
  David Stuck, Shaama M.S., Shane Yost, Joonho Lee, David Small,
  Daniel Levine, Susi Lehtola, Hugh Burton, Evgeny Epifanovsky,
  Bang C. Huynh
 -----------------------------------------------------------------------
 Exchange:     0.5400 Hartree-Fock + 1.0000 M06-2X
 Correlation:  1.0000 M06-2X
 Using SG-3 standard quadrature grid
Energy prior to optimization (guess energy) = -2580.414405414760
Begin Timing: Total SCF Calculation
begin iterations for algorithm: DIIS         
the SCF tolerance is set to 1.00e-05
    1   -2580.4144054148      1.84e-03     00000 
    2   -2580.4791502516      1.95e-03     00000 
    3   -2581.1585973526      3.96e-04     00000 
    4   -2581.1856656597      1.29e-04     00000 
    5   -2581.1886106219      4.69e-05     00000 
    6   -2581.1890110213      1.31e-05     00000 
    7   -2581.1890455814      5.09e-06     00000 Convergence criterion met
Timing for Total SCF: 799.00s (wall), 8656.40s (cpu)
(3)  G-ENP(liq) elect-nuc-pol free energy of system    -2581.189045581 a.u.
(4)  G-CDS(liq) cavity-dispersion-solvent structure 
     free energy                                              -17.7710 kcal/mol
(6)  G-S(liq) free energy of system                    -2581.217365546 a.u.
 Exchange:     0.5400 Hartree-Fock + 1.0000 M06-2X
 Correlation:  1.0000 M06-2X
 Using SG-3 standard quadrature grid
 Hartree-Fock
E_pcm = -0.0466539599
E_cds = -0.0283199644
 
 --------------------------------------------------------------
 
                    Orbital Energies (a.u.)
 --------------------------------------------------------------
 
 Alpha MOs
 -- Occupied --
-78.0442 -19.5813 -19.5741 -19.4708 -19.4661 -10.5615 -10.5590 -10.5154
-10.5153 -10.5110 -10.5109 -10.5108 -10.5104 -10.5101 -10.5098 -10.5053
-10.5051 -10.5039 -10.5037 -10.5030 -10.5028 -10.5028 -10.5025 -10.5023
-10.5020 -10.5012 -10.5011 -10.5009 -10.5008 -10.5005 -10.4987 -10.4984
-10.4983 -10.4966 -10.4961 -10.4952 -10.4917 -10.4852 -10.4848 -10.4836
-10.4831 -10.4828 -10.4823 -10.4817 -10.4815 -10.4812 -10.4808 -10.4806
-10.4782 -10.4777 -10.4723 -10.4709 -10.4687 -10.4575 -10.4555  -6.8555
 -4.9753  -4.9737  -4.9716  -1.1410  -1.0955  -0.9982  -0.9488  -0.9454
 -0.9367  -0.9226  -0.9211  -0.8863  -0.8824  -0.8694  -0.8623  -0.8589
 -0.8572  -0.8497  -0.8212  -0.8185  -0.8164  -0.8064  -0.8050  -0.7860
 -0.7654  -0.7650  -0.7622  -0.7582  -0.7494  -0.7320  -0.7317  -0.7280
 -0.7223  -0.7132  -0.7129  -0.6916  -0.6774  -0.6728  -0.6637  -0.6614
 -0.6558  -0.6525  -0.6373  -0.6337  -0.6272  -0.6239  -0.6112  -0.5971
 -0.5833  -0.5787  -0.5668  -0.5643  -0.5613  -0.5589  -0.5499  -0.5422
 -0.5329  -0.5130  -0.5089  -0.5066  -0.5005  -0.4980  -0.4894  -0.4829
 -0.4773  -0.4745  -0.4727  -0.4672  -0.4642  -0.4634  -0.4599  -0.4583
 -0.4535  -0.4523  -0.4511  -0.4493  -0.4486  -0.4471  -0.4448  -0.4407
 -0.4397  -0.4380  -0.4370  -0.4330  -0.4276  -0.4256  -0.4242  -0.4236
 -0.4182  -0.4146  -0.4116  -0.4079  -0.4076  -0.4069  -0.4062  -0.4015
 -0.3998  -0.3958  -0.3942  -0.3924  -0.3891  -0.3819  -0.3811  -0.3745
 -0.3736  -0.3721  -0.3701  -0.3694  -0.3669  -0.3638  -0.3598  -0.3582
 -0.3570  -0.3542  -0.3514  -0.3502  -0.3497  -0.3471  -0.3466  -0.3453
 -0.3437  -0.3348  -0.3319  -0.3312  -0.3291  -0.3281  -0.3261  -0.3186
 -0.3176  -0.3144  -0.3134  -0.3110  -0.3019  -0.2963  -0.2914  -0.2854
 -0.2554  -0.2524  -0.2421  -0.2397  -0.2366  -0.2360  -0.2344  -0.2297
 -0.2240  -0.2094
 -- Virtual --
  0.0197   0.0287   0.0526   0.0606   0.0725   0.0758   0.0773   0.0812
  0.0922   0.1076   0.1097   0.1113   0.1150   0.1203   0.1230   0.1262
  0.1312   0.1338   0.1363   0.1461   0.1477   0.1496   0.1537   0.1570
  0.1586   0.1630   0.1680   0.1698   0.1723   0.1736   0.1747   0.1772
  0.1778   0.1799   0.1830   0.1844   0.1855   0.1901   0.1921   0.1929
  0.1951   0.1986   0.2020   0.2048   0.2059   0.2073   0.2099   0.2136
  0.2156   0.2184   0.2200   0.2233   0.2242   0.2286   0.2309   0.2346
  0.2351   0.2377   0.2391   0.2409   0.2439   0.2457   0.2476   0.2492
  0.2499   0.2523   0.2545   0.2573   0.2602   0.2637   0.2642   0.2675
  0.2717   0.2735   0.2765   0.2801   0.2829   0.2880   0.2901   0.2936
  0.2987   0.3002   0.3033   0.3054   0.3104   0.3140   0.3163   0.3185
  0.3200   0.3280   0.3293   0.3315   0.3325   0.3345   0.3364   0.3402
  0.3425   0.3447   0.3459   0.3478   0.3519   0.3531   0.3548   0.3587
  0.3612   0.3643   0.3660   0.3681   0.3714   0.3729   0.3735   0.3758
  0.3788   0.3807   0.3818   0.3833   0.3857   0.3882   0.3908   0.3928
  0.3943   0.3964   0.4005   0.4070   0.4085   0.4120   0.4141   0.4167
  0.4199   0.4236   0.4245   0.4281   0.4292   0.4344   0.4372   0.4387
  0.4426   0.4465   0.4493   0.4501   0.4545   0.4561   0.4586   0.4595
  0.4625   0.4654   0.4682   0.4714   0.4738   0.4751   0.4784   0.4807
  0.4836   0.4858   0.4913   0.4931   0.4939   0.4958   0.5000   0.5032
  0.5059   0.5074   0.5096   0.5104   0.5131   0.5146   0.5173   0.5177
  0.5218   0.5226   0.5251   0.5263   0.5295   0.5320   0.5347   0.5362
  0.5383   0.5432   0.5467   0.5500   0.5528   0.5556   0.5562   0.5588
  0.5652   0.5673   0.5677   0.5693   0.5757   0.5795   0.5850   0.5888
  0.5936   0.5958   0.5965   0.6008   0.6017   0.6049   0.6095   0.6122
  0.6151   0.6188   0.6209   0.6255   0.6263   0.6268   0.6282   0.6335
  0.6345   0.6353   0.6365   0.6376   0.6393   0.6432   0.6440   0.6452
  0.6482   0.6493   0.6523   0.6532   0.6537   0.6559   0.6604   0.6617
  0.6656   0.6676   0.6683   0.6702   0.6724   0.6753   0.6787   0.6804
  0.6827   0.6843   0.6862   0.6874   0.6889   0.6935   0.6942   0.6946
  0.6965   0.6987   0.6999   0.7015   0.7024   0.7046   0.7056   0.7064
  0.7079   0.7087   0.7094   0.7117   0.7139   0.7156   0.7205   0.7213
  0.7228   0.7242   0.7254   0.7270   0.7284   0.7307   0.7329   0.7335
  0.7374   0.7394   0.7415   0.7451   0.7469   0.7512   0.7516   0.7527
  0.7554   0.7589   0.7599   0.7609   0.7646   0.7656   0.7683   0.7689
  0.7737   0.7759   0.7780   0.7801   0.7814   0.7854   0.7879   0.7890
  0.7915   0.7934   0.7950   0.7977   0.8014   0.8025   0.8046   0.8061
  0.8095   0.8140   0.8186   0.8210   0.8237   0.8244   0.8311   0.8337
  0.8367   0.8385   0.8407   0.8437   0.8473   0.8544   0.8595   0.8597
  0.8638   0.8729   0.8750   0.8844   0.8862   0.8949   0.8981   0.9019
  0.9056   0.9077   0.9116   0.9157   0.9203   0.9235   0.9258   0.9297
  0.9346   0.9367   0.9394   0.9440   0.9470   0.9538   0.9572   0.9634
  0.9681   0.9705   0.9751   0.9801   0.9824   0.9863   0.9886   0.9925
  0.9986   1.0036   1.0100   1.0118   1.0137   1.0183   1.0286   1.0302
  1.0334   1.0372   1.0415   1.0449   1.0511   1.0540   1.0558   1.0581
  1.0608   1.0657   1.0694   1.0734   1.0777   1.0799   1.0831   1.0876
  1.0893   1.0918   1.0943   1.0973   1.0999   1.1037   1.1091   1.1124
  1.1155   1.1179   1.1218   1.1248   1.1295   1.1317   1.1363   1.1372
  1.1389   1.1487   1.1536   1.1629   1.1650   1.1696   1.1724   1.1759
  1.1773   1.1817   1.1863   1.1889   1.1938   1.1980   1.2000   1.2071
  1.2086   1.2122   1.2199   1.2215   1.2256   1.2328   1.2375   1.2388
  1.2416   1.2444   1.2472   1.2522   1.2583   1.2618   1.2663   1.2708
  1.2718   1.2754   1.2842   1.2911   1.2949   1.2982   1.3061   1.3109
  1.3198   1.3228   1.3255   1.3299   1.3382   1.3436   1.3477   1.3511
  1.3526   1.3560   1.3579   1.3623   1.3679   1.3740   1.3772   1.3821
  1.3870   1.3941   1.3966   1.4044   1.4117   1.4169   1.4176   1.4296
  1.4343   1.4363   1.4401   1.4455   1.4507   1.4537   1.4568   1.4687
  1.4757   1.4789   1.4849   1.4920   1.4937   1.4971   1.5015   1.5032
  1.5091   1.5108   1.5131   1.5178   1.5195   1.5205   1.5309   1.5338
  1.5377   1.5396   1.5416   1.5445   1.5455   1.5471   1.5486   1.5515
  1.5532   1.5566   1.5585   1.5614   1.5627   1.5648   1.5655   1.5686
  1.5724   1.5746   1.5785   1.5796   1.5809   1.5817   1.5859   1.5890
  1.5904   1.5922   1.5962   1.5965   1.5988   1.6012   1.6024   1.6047
  1.6084   1.6094   1.6117   1.6150   1.6164   1.6175   1.6191   1.6214
  1.6243   1.6252   1.6283   1.6290   1.6318   1.6336   1.6360   1.6387
  1.6388   1.6415   1.6428   1.6447   1.6451   1.6468   1.6514   1.6559
  1.6592   1.6627   1.6647   1.6683   1.6702   1.6721   1.6736   1.6757
  1.6787   1.6814   1.6824   1.6850   1.6857   1.6903   1.6948   1.6992
  1.7050   1.7059   1.7077   1.7142   1.7156   1.7182   1.7218   1.7248
  1.7273   1.7286   1.7320   1.7363   1.7368   1.7408   1.7447   1.7457
  1.7482   1.7534   1.7560   1.7574   1.7598   1.7602   1.7654   1.7675
  1.7708   1.7739   1.7757   1.7805   1.7839   1.7892   1.7905   1.7944
  1.7980   1.8026   1.8046   1.8091   1.8127   1.8141   1.8176   1.8190
  1.8197   1.8259   1.8300   1.8333   1.8373   1.8411   1.8416   1.8455
  1.8486   1.8529   1.8574   1.8611   1.8633   1.8647   1.8705   1.8720
  1.8732   1.8774   1.8812   1.8828   1.8846   1.8870   1.8878   1.8906
  1.8930   1.8995   1.9011   1.9046   1.9087   1.9111   1.9145   1.9200
  1.9249   1.9268   1.9287   1.9373   1.9414   1.9491   1.9529   1.9540
  1.9578   1.9606   1.9647   1.9658   1.9698   1.9778   1.9799   1.9813
  1.9853   1.9895   1.9911   1.9947   1.9956   1.9989   1.9997   2.0010
  2.0045   2.0091   2.0111   2.0146   2.0185   2.0223   2.0251   2.0302
  2.0328   2.0383   2.0431   2.0450   2.0513   2.0519   2.0571   2.0705
  2.0725   2.0762   2.0794   2.0875   2.0893   2.0938   2.0964   2.1020
  2.1070   2.1092   2.1121   2.1159   2.1200   2.1245   2.1302   2.1311
  2.1395   2.1414   2.1475   2.1485   2.1525   2.1548   2.1570   2.1621
  2.1639   2.1658   2.1662   2.1686   2.1687   2.1703   2.1750   2.1783
  2.1826   2.1879   2.1912   2.1926   2.2002   2.2027   2.2097   2.2127
  2.2150   2.2211   2.2331   2.2372   2.2424   2.2473   2.2541   2.2573
  2.2604   2.2639   2.2661   2.2733   2.2804   2.2831   2.2912   2.2945
  2.3002   2.3177   2.3243   2.3256   2.3282   2.3308   2.3383   2.3431
  2.3469   2.3492   2.3552   2.3624   2.3667   2.3764   2.3784   2.3853
  2.3874   2.3972   2.4034   2.4075   2.4154   2.4161   2.4223   2.4258
  2.4289   2.4324   2.4374   2.4392   2.4429   2.4448   2.4493   2.4528
  2.4556   2.4582   2.4618   2.4644   2.4715   2.4740   2.4771   2.4801
  2.4853   2.4933   2.4960   2.4982   2.5103   2.5156   2.5230   2.5268
  2.5286   2.5314   2.5374   2.5401   2.5438   2.5509   2.5536   2.5552
  2.5592   2.5608   2.5621   2.5645   2.5674   2.5680   2.5709   2.5743
  2.5767   2.5807   2.5868   2.5884   2.5924   2.5940   2.5978   2.5981
  2.6046   2.6055   2.6108   2.6128   2.6165   2.6200   2.6207   2.6222
  2.6280   2.6300   2.6312   2.6328   2.6383   2.6424   2.6455   2.6495
  2.6531   2.6604   2.6622   2.6638   2.6659   2.6720   2.6730   2.6768
  2.6803   2.6843   2.6871   2.6911   2.6932   2.6945   2.6964   2.6986
  2.7020   2.7041   2.7089   2.7123   2.7143   2.7169   2.7203   2.7229
  2.7241   2.7267   2.7274   2.7299   2.7328   2.7367   2.7387   2.7453
  2.7469   2.7480   2.7529   2.7599   2.7601   2.7630   2.7676   2.7696
  2.7752   2.7823   2.7843   2.7865   2.7883   2.7980   2.8018   2.8085
  2.8117   2.8172   2.8198   2.8221   2.8274   2.8299   2.8370   2.8433
  2.8459   2.8514   2.8565   2.8607   2.8633   2.8707   2.8723   2.8813
  2.8853   2.8893   2.8950   2.9013   2.9044   2.9109   2.9125   2.9165
  2.9167   2.9213   2.9264   2.9341   2.9401   2.9466   2.9507   2.9557
  2.9651   2.9690   2.9713   2.9756   2.9778   2.9811   2.9842   2.9890
  2.9906   2.9930   2.9994   3.0006   3.0078   3.0101   3.0173   3.0226
  3.0258   3.0288   3.0366   3.0400   3.0454   3.0469   3.0488   3.0592
  3.0602   3.0722   3.0747   3.0774   3.0863   3.0932   3.1058   3.1081
  3.1200   3.1261   3.1284   3.1376   3.1392   3.1440   3.1614   3.1726
  3.1776   3.1795   3.1888   3.1931   3.1956   3.2006   3.2120   3.2192
  3.2209   3.2334   3.2432   3.2490   3.2548   3.2580   3.2628   3.2702
  3.2763   3.2898   3.2906   3.3067   3.3107   3.3135   3.3159   3.3225
  3.3244   3.3392   3.3459   3.3539   3.3579   3.3711   3.3821   3.3898
  3.4018   3.4139   3.4284   3.4354   3.4452   3.4571   3.4628   3.4816
  3.4928   3.5000   3.5053   3.5183   3.5244   3.5245   3.5309   3.5362
  3.5434   3.5508   3.5532   3.5674   3.5753   3.5805   3.5883   3.5902
  3.6066   3.6192   3.6351   3.6573   3.6601   3.6833   3.6934   3.7042
  3.7262   3.7458   3.7527   3.7542   3.7660   3.7674   3.7757   3.7859
  3.8491   3.8511   3.8573   3.8595   3.8599   3.8638   3.8669   3.8697
  3.8724   3.8761   3.8818   3.8844   3.8889   3.8906   3.8972   3.9005
  3.9026   3.9069   3.9085   3.9141   3.9200   3.9226   3.9256   3.9267
  3.9314   3.9368   3.9463   4.0116   4.0594   4.0883   4.1031   4.1079
  4.1139   4.1269   4.1471   4.1507   4.1693   4.1777   4.1913   4.1952
  4.2158   4.2432   4.2442   4.2613   4.2655   4.2896   4.3367   4.3441
  4.3555   4.3598   4.3628   4.3660   4.3753   4.3794   4.4334   4.4383
  4.4981   4.5041   4.5056   4.5258   4.5691   4.5985   4.7167   4.8758
  4.8906   4.8969   4.9253   4.9457   4.9606   5.0822   5.1388   5.1587
  5.1712   5.2112   5.2647   5.2758   5.3582   5.3731   5.4774   5.7085
  5.7527   7.3640  14.1632  14.3176  14.4431  23.5538  23.6387  23.6877
 23.7035  23.8657  23.8809  23.9425  23.9442  23.9447  23.9536  23.9621
 23.9634  23.9907  23.9916  24.0239  24.0261  24.0436  24.0466  24.0524
 24.0534  24.0555  24.0571  24.0587  24.0619  24.0626  24.0682  24.0732
 24.0780  24.0786  24.0819  24.0875  24.0981  24.1032  24.1048  24.1187
 24.1256  24.1458  24.1832  24.1874  24.2151  24.2188  24.2301  24.2339
 24.2503  24.2804  24.2832  24.2971  24.3044  24.3081  24.3185  50.0731
 50.1046  50.1392  50.1748 163.5780
 --------------------------------------------------------------
 
          Ground-State Mulliken Net Atomic Charges

     Atom                 Charge (a.u.)
  ----------------------------------------
      1 P                     1.237298
      2 O                    -0.687873
      3 O                    -0.675232
      4 O                    -0.580899
      5 O                    -0.576529
      6 C                     0.265245
      7 C                    -0.244076
      8 C                    -0.043066
      9 H                     0.146190
     10 C                    -0.063952
     11 C                    -0.097602
     12 H                     0.132054
     13 C                    -0.149032
     14 H                     0.130373
     15 C                    -0.146824
     16 H                     0.131401
     17 C                    -0.089509
     18 H                     0.159882
     19 C                    -0.065172
     20 C                    -0.017472
     21 C                    -0.014535
     22 C                     0.190889
     23 C                    -0.184384
     24 C                    -0.043038
     25 H                     0.149116
     26 C                    -0.065498
     27 C                    -0.102479
     28 H                     0.132472
     29 C                    -0.145634
     30 H                     0.130243
     31 C                    -0.149432
     32 H                     0.131291
     33 C                    -0.081097
     34 H                     0.162021
     35 C                    -0.074676
     36 C                     0.000100
     37 C                     0.021940
     38 C                     0.022426
     39 C                    -0.098821
     40 C                    -0.087085
     41 C                    -0.070055
     42 H                     0.134125
     43 H                     0.143660
     44 C                     0.028546
     45 C                     0.017585
     46 C                     0.024120
     47 C                    -0.089367
     48 C                    -0.110630
     49 C                    -0.067433
     50 H                     0.144477
     51 H                     0.134976
     52 C                    -0.271574
     53 H                     0.191806
     54 C                    -0.288234
     55 H                     0.183063
     56 C                    -0.277321
     57 H                     0.159372
     58 C                    -0.285171
     59 H                     0.184741
     60 C                    -0.266504
     61 H                     0.187776
     62 C                    -0.281125
     63 H                     0.158153
     64 C                    -0.374719
     65 H                     0.131980
     66 H                     0.110204
     67 H                     0.185798
     68 C                    -0.353284
     69 H                     0.139397
     70 H                     0.127985
     71 H                     0.126682
     72 C                    -0.351308
     73 H                     0.139703
     74 H                     0.135803
     75 H                     0.130821
     76 C                    -0.367964
     77 H                     0.135825
     78 H                     0.174653
     79 H                     0.123381
     80 C                    -0.351284
     81 H                     0.130323
     82 H                     0.142904
     83 H                     0.152060
     84 C                    -0.375605
     85 H                     0.137119
     86 H                     0.136144
     87 H                     0.145540
     88 C                    -0.347326
     89 H                     0.141499
     90 H                     0.135848
     91 H                     0.133128
     92 C                    -0.377017
     93 H                     0.136987
     94 H                     0.161143
     95 H                     0.128925
     96 C                    -0.383392
     97 H                     0.111383
     98 H                     0.182337
     99 H                     0.132992
    100 C                    -0.351445
    101 H                     0.138617
    102 H                     0.133870
    103 H                     0.126915
    104 C                    -0.359752
    105 H                     0.130669
    106 H                     0.152506
    107 H                     0.144259
    108 C                    -0.364709
    109 H                     0.140053
    110 H                     0.142669
    111 H                     0.133670
  ----------------------------------------
  Sum of atomic charges =    -1.000000

 -----------------------------------------------------------------
                    Cartesian Multipole Moments
 -----------------------------------------------------------------
    Charge (ESU x 10^10)
                -4.8032
    Dipole Moment (Debye)
         X       2.9889      Y       3.0533      Z       0.7306
       Tot       4.3347
    Quadrupole Moments (Debye-Ang)
        XX    -351.9875     XY      -3.9283     YY    -348.4036
        XZ      -3.3769     YZ      -0.4605     ZZ    -356.0688
    Octopole Moments (Debye-Ang^2)
       XXX     496.3177    XXY     805.3580    XYY     166.3342
       YYY    2306.8064    XXZ      87.3458    XYZ      33.3421
       YYZ      76.7813    XZZ     165.0345    YZZ     762.9043
       ZZZ     194.6002
    Hexadecapole Moments (Debye-Ang^3)
      XXXX  -20722.1593   XXXY    -224.3704   XXYY   -7599.2385
      XYYY    -137.7375   YYYY  -24489.6232   XXXZ   -6572.7190
      XXYZ    -208.0886   XYYZ   -2254.8911   YYYZ    -624.7537
      XXZZ   -7279.7810   XYZZ    -132.1533   YYZZ   -7374.6019
      XZZZ   -6642.3041   YZZZ    -372.8543   ZZZZ  -21837.1640
 -----------------------------------------------------------------
Archival summary:
1\1\smp-n131.crc.pitt.edu\SP\ProcedureUnspecified\6-311G**\145056(1-,1)\bim12\SunJan1700:58:522021SunJan1700:58:522021\0\\#,ProcedureUnspecified,6-311G**,\\-1,1\P\O,1,1.49305\O,1,1.5105,2,121.239\O,1,1.65198,2,112.562,3,126.13,0\C,4,1.39101,1,114.016,2,52.8792,0\C,5,1.3824,4,118.065,1,78.4322,0\C,5,1.42023,4,118.09,1,-102.083,0\C,7,1.37897,5,117.09,4,178.881,0\H,8,1.08586,7,119.131,5,178.22,0\C,8,1.4186,7,122.073,5,-3.67676,0\C,10,1.42027,8,121.187,7,-174.833,0\H,11,1.08738,10,118.492,8,-1.45386,0\C,11,1.37583,10,120.924,8,177.417,0\H,13,1.0865,11,120.255,10,-179.34,0\C,13,1.41514,11,119.875,10,-0.165939,0\H,15,1.08668,13,119.663,11,-178.588,0\C,15,1.37714,13,120.634,11,0.937269,0\H,17,1.08412,15,120.014,13,-179.183,0\C,17,1.42076,15,120.886,13,-0.147971,0\C,6,1.48915,5,119.354,4,3.65991,0\C,20,1.38782,6,119.972,5,-56.6886,0\O,21,1.37633,20,120.164,6,3.29118,0\C,21,1.42392,20,122.63,6,-172.011,0\C,23,1.37719,21,118.072,20,-5.69916,0\H,24,1.08588,23,119.452,21,179.451,0\C,24,1.41796,23,121.912,21,-1.06233,0\C,26,1.42048,24,121.35,23,-175.315,0\H,27,1.0876,26,118.482,24,-0.954885,0\C,27,1.37617,26,120.916,24,178.393,0\H,29,1.08647,27,120.299,26,-179.542,0\C,29,1.41537,27,119.8,26,0.0230021,0\H,31,1.08653,29,119.666,27,-179.041,0\C,31,1.37736,29,120.689,27,0.600942,0\H,33,1.08398,31,119.959,29,-179.449,0\C,33,1.42259,31,120.996,29,-0.318929,0\C,7,1.49603,5,121.603,4,-2.06961,0\C,36,1.414,7,119.907,5,-69.2034,0\C,37,1.39825,36,119.071,7,-174.681,0\H,38,1.08649,37,118.663,36,179.214,0\C,38,1.39657,37,121.97,36,0.652952,0\C,40,1.39457,38,117.855,37,-2.49046,0\H,41,1.08712,40,118.527,38,-178.647,0\C,41,1.39993,40,122.516,38,1.04691,0\C,23,1.49841,21,119.666,20,169.785,0\C,44,1.41367,23,118.515,21,-88.092,0\C,45,1.40053,44,118.473,23,-179.531,0\H,46,1.08384,45,119.427,44,177.979,0\C,46,1.39662,45,122.198,44,-0.723441,0\C,48,1.40043,46,118.137,45,0.827222,0\H,49,1.08624,48,119.023,46,178.222,0\C,49,1.40032,48,122.042,46,0.271977,0\C,40,1.52206,38,121.794,37,179.832,0\H,52,1.09864,40,107.257,38,-165.437,0\C,48,1.52403,46,120.009,45,178.073,0\H,54,1.09749,48,107.161,46,1.28279,0\C,37,1.52621,36,122.488,7,3.38431,0\H,56,1.09238,37,108.634,36,9.28755,0\C,43,1.52727,41,118.757,40,-177.056,0\H,58,1.09315,43,107.843,41,164.633,0\C,51,1.52793,49,121.048,48,172.718,0\H,60,1.09304,51,107.645,49,152.819,0\C,45,1.53157,44,121.358,23,-5.4337,0\H,62,1.09453,45,108.06,44,28.1973,0\C,60,1.53376,51,115.866,49,33.4286,0\H,64,1.08932,60,112.743,51,60.4676,0\H,64,1.09423,60,108.695,51,178.889,0\H,64,1.09716,60,112.287,51,-62.8898,0\C,52,1.53759,40,113.141,38,-47.0916,0\H,68,1.09503,52,111.041,40,-54.2766,0\H,68,1.0962,52,111.578,40,65.986,0\H,68,1.0965,52,110.544,40,-174.521,0\C,62,1.53824,45,115.144,44,147.462,0\H,72,1.09211,62,112.293,45,-61.4483,0\H,72,1.09546,62,112.649,45,60.8871,0\H,72,1.09563,62,109.354,45,-179.998,0\C,56,1.53866,37,111.854,36,127.004,0\H,76,1.09337,56,110.717,37,-51.997,0\H,76,1.09595,56,110.571,37,-171.696,0\H,76,1.09679,56,111.809,37,68.6264,0\C,54,1.5389,48,112.477,46,118.738,0\H,80,1.09541,54,110.732,48,-60.211,0\H,80,1.09611,54,110.85,48,-179.634,0\H,80,1.09697,54,111.271,48,60.6529,0\C,54,1.53953,48,111.284,46,-116.319,0\H,84,1.09509,54,110.933,48,55.5428,0\H,84,1.09641,54,110.765,48,175.887,0\H,84,1.09647,54,111.104,48,-64.2678,0\C,56,1.53989,37,110.852,36,-107.982,0\H,88,1.09586,56,110.929,37,58.2002,0\H,88,1.09669,56,111.082,37,-61.6817,0\H,88,1.09684,56,110.677,37,178.4,0\C,58,1.54012,43,111.46,41,47.5416,0\H,92,1.09199,58,110.111,43,53.5382,0\H,92,1.0935,58,110.138,43,173.426,0\H,92,1.09602,58,112.068,43,-67.7147,0\C,58,1.54014,43,111.911,41,-76.4272,0\H,96,1.09464,58,111.74,43,-57.6158,0\H,96,1.09479,58,110.004,43,-177.634,0\H,96,1.09709,58,110.87,43,62.5422,0\C,52,1.54036,40,110.499,38,77.8873,0\H,100,1.09659,52,110.462,40,58.5062,0\H,100,1.09706,52,110.755,40,-61.2019,0\H,100,1.09756,52,111.159,40,178.811,0\C,62,1.54337,45,109.33,44,-89.1419,0\H,104,1.09314,62,111.565,45,56.7184,0\H,104,1.09648,62,110.647,45,177.103,0\H,104,1.0968,62,110.341,45,-63.2422,0\C,60,1.544,51,109.571,49,-89.9898,0\H,108,1.0926,60,111.861,51,-56.3205,0\H,108,1.09531,60,110.179,51,-176.223,0\H,108,1.09729,60,110.39,51,63.8686,0\\\@

 Total job time:  1077.67s(wall), 11859.93s(cpu) 
 Sun Jan 17 00:58:52 2021

        *************************************************************
        *                                                           *
        *  Thank you very much for using Q-Chem.  Have a nice day.  *
        *                                                           *
        *************************************************************


Done Job For Fragment 0
calling putenv with: QCSCRATCH=/ihome/pliu/bim12/capt1/xtb/A_DAB5_ts1/gaussian/eda2 
calling putenv with: QCLOCALSCR=/scratch/slurm-2254614 
calling putenv with: QCTHREADS=12 
Creating input file /scratch/slurm-2254614/qchem154571/Frg2.input
using default PutDataFrgm: nothing
calling putenv with: QCSCRATCH=/scratch/slurm-2254614/qchem154571/ 
calling putenv with: QCLOCALSCR=/scratch/slurm-2254614/qchem154571/ 
Spawning Job For Fragment 1
                  Welcome to Q-Chem
     A Quantum Leap Into The Future Of Chemistry


 Q-Chem 5.3, Q-Chem, Inc., Pleasanton, CA (2020)

 License issued to: SRG Peng Liu, University of Pittsburgh

 Yihan Shao,  Zhengting Gan,  E. Epifanovsky,  A. T. B. Gilbert,  M. Wormit,  
 J. Kussmann,  A. W. Lange,  A. Behn,  Jia Deng,  Xintian Feng,  D. Ghosh,  
 M. Goldey,  P. R. Horn,  L. D. Jacobson,  I. Kaliman,  T. Kus,  A. Landau,  
 Jie Liu,  E. I. Proynov,  R. M. Richard,  R. P. Steele,  E. J. Sundstrom,  
 H. L. Woodcock III,  P. M. Zimmerman,  D. Zuev,  B. Alam,  B. Albrecht,  
 A. Aldossary,  E. Alguire,  S. A. Baeppler,  D. Barton,  Z. Benda,  
 Y. A. Bernard,  E. J. Berquist,  K. B. Bravaya,  H. Burton,  K. Carter-Fenk,  
 D. Casanova,  Chun-Min Chang,  Yunqing Chen,  A. Chien,  K. D. Closser,  
 M. P. Coons,  S. Coriani,  S. Dasgupta,  A. L. Dempwolff,  M. Diedenhofen,  
 Hainam Do,  R. G. Edgar,  Po-Tung Fang,  S. Faraji,  S. Fatehi,  
 Qingguo Feng,  J. Fosso-Tande,  J. Gayvert,  Qinghui Ge,  A. Ghysels,  
 G. Gidofalvi,  J. Gomes,  J. Gonthier,  S. Gulania,  A. Gunina,  D. Hait,  
 M. W. D. Hanson-Heine,  S. Hammes-Schiffer,  P. H. P. Harbach,  
 A. W. Hauser,  M. F. Herbst,  J. E. Herr,  E. G. Hohenstein,  Z. C. Holden,  
 S. Houck,  Kerwin Hui,  B. C. Huynh,  M. Ivanov,  T.-C. Jagau,  Hyunjun Ji,  
 B. Kaduk,  K. Khistyaev,  Jaehoon Kim,  P. Klunzinger,  K. Koh,  
 D. Kosenkov,  L. Koulias,  T. Kowalczyk,  C. M. Krauter,  A. Kunitsa,  
 Ka Un Lao,  A. Laurent,  K. V. Lawler,  Joonho Lee,  D. Lefrancois,  
 S. Lehtola,  D. S. Levine,  Yi-Pei Li,  You-Sheng Lin,  Fenglai Liu,  
 Kuan-Yu Liu,  E. Livshits,  M. Loipersberger,  A. Luenser,  P. Manohar,  
 E. Mansoor,  S. F. Manzer,  Shan-Ping Mao,  Yuezhi Mao,  N. Mardirossian,  
 A. V. Marenich,  T. Markovich,  L. A. Martinez-Martinez,  S. A. Maurer,  
 N. J. Mayhall,  S. C. McKenzie,  J.-M. Mewes,  P. Morgante,  A. F. Morrison,  
 J. W. Mullinax,  K. Nanda,  T. S. Nguyen-Beck,  R. Olivares-Amaya,  
 K. J. Oosterbaan,  J. A. Parkhill,  S. K. Paul,  F. Pavosevic,  Zheng Pei,  
 T. M. Perrine,  F. Plasser,  P. Pokhilko,  S. Prager,  A. Prociuk,  
 E. Ramos,  B. Rana,  D. R. Rehn,  F. Rob,  E. Rossomme,  M. Scheurer,  
 M. Schneider,  N. Sergueev,  S. M. Sharada,  S. Sharma,  W. Skomorowski,  
[...]
  1.8713   1.8741   1.8752   1.8761   1.8801   1.8815   1.8828   1.8852
  1.8867   1.8880   1.8898   1.8958   1.8975   1.8989   1.9023   1.9050
  1.9070   1.9083   1.9108   1.9134   1.9153   1.9222   1.9263   1.9273
  1.9296   1.9325   1.9368   1.9385   1.9449   1.9480   1.9491   1.9518
  1.9542   1.9556   1.9586   1.9597   1.9638   1.9682   1.9706   1.9740
  1.9764   1.9802   1.9815   1.9831   1.9857   1.9862   1.9913   1.9933
  1.9943   1.9965   1.9980   1.9985   1.9992   2.0003   2.0041   2.0055
  2.0087   2.0104   2.0122   2.0154   2.0188   2.0213   2.0240   2.0277
  2.0282   2.0294   2.0326   2.0356   2.0386   2.0432   2.0438   2.0464
  2.0495   2.0526   2.0541   2.0573   2.0615   2.0620   2.0672   2.0709
  2.0735   2.0747   2.0791   2.0838   2.0855   2.0905   2.0941   2.0961
  2.0969   2.1010   2.1034   2.1078   2.1115   2.1134   2.1161   2.1175
  2.1234   2.1282   2.1312   2.1316   2.1376   2.1403   2.1435   2.1483
  2.1496   2.1545   2.1549   2.1557   2.1579   2.1593   2.1607   2.1630
  2.1637   2.1650   2.1665   2.1674   2.1692   2.1718   2.1742   2.1768
  2.1793   2.1826   2.1879   2.1913   2.1942   2.1968   2.1988   2.2031
  2.2050   2.2087   2.2132   2.2143   2.2186   2.2211   2.2316   2.2371
  2.2424   2.2468   2.2489   2.2531   2.2558   2.2578   2.2595   2.2655
  2.2680   2.2707   2.2750   2.2783   2.2830   2.2879   2.2924   2.2956
  2.3041   2.3083   2.3152   2.3235   2.3250   2.3298   2.3352   2.3399
  2.3438   2.3451   2.3474   2.3485   2.3606   2.3643   2.3690   2.3726
  2.3784   2.3813   2.3826   2.3873   2.3919   2.3968   2.4022   2.4025
  2.4061   2.4076   2.4120   2.4148   2.4203   2.4218   2.4243   2.4264
  2.4291   2.4311   2.4316   2.4343   2.4375   2.4400   2.4427   2.4443
  2.4463   2.4504   2.4546   2.4586   2.4629   2.4656   2.4668   2.4700
  2.4750   2.4793   2.4821   2.4854   2.4870   2.4912   2.4931   2.4939
  2.4974   2.5014   2.5082   2.5118   2.5148   2.5174   2.5243   2.5270
  2.5277   2.5310   2.5349   2.5406   2.5422   2.5468   2.5503   2.5515
  2.5528   2.5578   2.5586   2.5610   2.5633   2.5643   2.5660   2.5685
  2.5726   2.5748   2.5781   2.5790   2.5841   2.5852   2.5884   2.5920
  2.5924   2.5956   2.6004   2.6044   2.6062   2.6073   2.6090   2.6124
  2.6152   2.6174   2.6201   2.6222   2.6262   2.6273   2.6293   2.6308
  2.6313   2.6371   2.6385   2.6438   2.6468   2.6522   2.6530   2.6554
  2.6590   2.6603   2.6630   2.6653   2.6682   2.6710   2.6719   2.6733
  2.6751   2.6783   2.6814   2.6864   2.6871   2.6880   2.6898   2.6920
  2.6944   2.6958   2.6977   2.6993   2.7039   2.7069   2.7070   2.7103
  2.7114   2.7134   2.7174   2.7185   2.7199   2.7225   2.7238   2.7250
  2.7280   2.7292   2.7336   2.7358   2.7369   2.7376   2.7402   2.7416
  2.7445   2.7469   2.7478   2.7532   2.7543   2.7567   2.7599   2.7619
  2.7652   2.7669   2.7700   2.7715   2.7745   2.7759   2.7802   2.7826
  2.7855   2.7884   2.7918   2.7933   2.7955   2.7981   2.8063   2.8089
  2.8134   2.8166   2.8183   2.8213   2.8250   2.8287   2.8320   2.8362
  2.8404   2.8411   2.8432   2.8473   2.8563   2.8578   2.8594   2.8631
  2.8661   2.8670   2.8701   2.8773   2.8800   2.8838   2.8885   2.8934
  2.8984   2.8986   2.9045   2.9056   2.9068   2.9098   2.9109   2.9145
  2.9180   2.9224   2.9248   2.9267   2.9286   2.9332   2.9358   2.9380
  2.9430   2.9444   2.9497   2.9559   2.9591   2.9626   2.9672   2.9732
  2.9748   2.9759   2.9779   2.9802   2.9819   2.9866   2.9871   2.9912
  2.9950   2.9975   3.0021   3.0040   3.0057   3.0078   3.0112   3.0135
  3.0179   3.0215   3.0256   3.0269   3.0311   3.0357   3.0372   3.0413
  3.0468   3.0479   3.0509   3.0551   3.0580   3.0625   3.0679   3.0704
  3.0746   3.0774   3.0865   3.0965   3.1037   3.1062   3.1124   3.1167
  3.1199   3.1233   3.1266   3.1325   3.1405   3.1442   3.1502   3.1587
  3.1647   3.1673   3.1746   3.1764   3.1781   3.1863   3.1905   3.1932
  3.2008   3.2015   3.2075   3.2156   3.2209   3.2241   3.2315   3.2412
  3.2485   3.2543   3.2588   3.2609   3.2614   3.2690   3.2722   3.2767
  3.2798   3.2873   3.2902   3.2929   3.3034   3.3054   3.3099   3.3126
  3.3154   3.3207   3.3219   3.3322   3.3359   3.3525   3.3548   3.3553
  3.3689   3.3792   3.3800   3.3970   3.4127   3.4167   3.4294   3.4319
  3.4354   3.4443   3.4504   3.4571   3.4599   3.4667   3.4706   3.4814
  3.4867   3.4917   3.4972   3.5008   3.5014   3.5159   3.5209   3.5227
  3.5261   3.5272   3.5325   3.5427   3.5526   3.5548   3.5665   3.5732
  3.5820   3.5859   3.5865   3.5880   3.5980   3.6035   3.6162   3.6340
  3.6379   3.6430   3.6566   3.6576   3.6749   3.6765   3.6835   3.6911
  3.7072   3.7184   3.7230   3.7374   3.7422   3.7474   3.7520   3.7598
  3.7666   3.7687   3.7745   3.8022   3.8054   3.8480   3.8502   3.8564
  3.8585   3.8600   3.8623   3.8639   3.8645   3.8672   3.8712   3.8768
  3.8819   3.8840   3.8870   3.8902   3.8910   3.8961   3.8984   3.8998
  3.9026   3.9077   3.9086   3.9129   3.9175   3.9192   3.9222   3.9231
  3.9282   3.9298   3.9317   3.9376   3.9401   3.9458   3.9532   3.9771
  4.0114   4.0118   4.0577   4.0658   4.0797   4.0924   4.0983   4.1029
  4.1042   4.1092   4.1122   4.1364   4.1465   4.1482   4.1521   4.1560
  4.1678   4.1769   4.1899   4.1921   4.1988   4.2149   4.2217   4.2368
  4.2395   4.2438   4.2450   4.2462   4.2598   4.2707   4.3055   4.3353
  4.3464   4.3530   4.3552   4.3590   4.3652   4.3668   4.3690   4.3712
  4.3813   4.4212   4.4326   4.4365   4.4604   4.4948   4.5003   4.5025
  4.5297   4.5633   4.5944   4.7118   4.8003   4.8696   4.8849   4.8920
  4.8957   4.9037   4.9192   4.9435   4.9563   4.9625   5.0809   5.1285
  5.1394   5.1589   5.1623   5.1884   5.2064   5.2422   5.2974   5.3142
  5.3188   5.3734   5.4206   5.4960   5.7391   5.7545   5.8318   6.3056
  6.3644   6.3989   6.5108   6.5770   6.8730   7.3700  14.1624  14.3019
 14.4348  23.5579  23.5635  23.6414  23.6873  23.7033  23.7297  23.7435
 23.8667  23.8819  23.9397  23.9424  23.9454  23.9540  23.9581  23.9691
 23.9760  23.9769  23.9867  23.9894  24.0032  24.0190  24.0215  24.0331
 24.0407  24.0427  24.0455  24.0520  24.0527  24.0531  24.0564  24.0578
 24.0592  24.0606  24.0641  24.0650  24.0687  24.0710  24.0759  24.0771
 24.0822  24.0860  24.0927  24.0985  24.1068  24.1112  24.1208  24.1256
 24.1401  24.1407  24.1782  24.1846  24.1854  24.2137  24.2139  24.2176
 24.2241  24.2281  24.2290  24.2442  24.2773  24.2783  24.2911  24.2911
 24.2986  24.3031  24.3050  24.3150  35.8009  50.0713  50.0938  50.1308
 50.1666  50.2033  66.9187  66.9355 163.5838
 --------------------------------------------------------------
 
          Ground-State Mulliken Net Atomic Charges

     Atom                 Charge (a.u.)
  ----------------------------------------
      1 P                     1.277184
      2 O                    -0.710398
      3 O                    -0.643160
      4 O                    -0.598392
      5 O                    -0.566911
      6 C                     0.242121
      7 C                    -0.233448
      8 C                    -0.030691
      9 H                     0.150326
     10 C                    -0.091337
     11 C                    -0.088003
     12 H                     0.134567
     13 C                    -0.147650
     14 H                     0.133623
     15 C                    -0.135880
     16 H                     0.134484
     17 C                    -0.099738
     18 H                     0.160514
     19 C                    -0.100647
     20 C                     0.004376
     21 C                     0.009469
     22 C                     0.182656
     23 C                    -0.173054
     24 C                    -0.043743
     25 H                     0.151340
     26 C                    -0.061090
     27 C                    -0.101772
     28 H                     0.134360
     29 C                    -0.142771
     30 H                     0.132695
     31 C                    -0.148230
     32 H                     0.133503
     33 C                    -0.079834
     34 H                     0.163999
     35 C                    -0.080382
     36 C                    -0.002527
     37 C                     0.021097
     38 C                     0.015329
     39 C                    -0.098653
     40 C                    -0.090272
     41 C                    -0.069310
     42 H                     0.135368
     43 H                     0.147799
     44 C                     0.025079
     45 C                     0.015613
     46 C                     0.023074
     47 C                    -0.086911
     48 C                    -0.109828
     49 C                    -0.067400
     50 H                     0.147033
     51 H                     0.135551
     52 C                    -0.274045
     53 H                     0.192414
     54 C                    -0.282982
     55 H                     0.178433
     56 C                    -0.272561
     57 H                     0.159780
     58 C                    -0.285987
     59 H                     0.183138
     60 C                    -0.259490
     61 H                     0.167956
     62 C                    -0.281051
     63 H                     0.157995
     64 C                    -0.373573
     65 H                     0.134020
     66 H                     0.112821
     67 H                     0.182494
     68 C                    -0.351894
     69 H                     0.140492
     70 H                     0.128430
     71 H                     0.128403
     72 C                    -0.350184
     73 H                     0.138394
     74 H                     0.138336
     75 H                     0.133161
     76 C                    -0.371695
     77 H                     0.145508
     78 H                     0.153890
     79 H                     0.132065
     80 C                    -0.373386
     81 H                     0.136010
     82 H                     0.150871
     83 H                     0.149789
     84 C                    -0.374794
     85 H                     0.140039
     86 H                     0.137771
     87 H                     0.145820
     88 C                    -0.346410
     89 H                     0.141265
     90 H                     0.136125
     91 H                     0.134581
     92 C                    -0.376023
     93 H                     0.137280
     94 H                     0.160070
     95 H                     0.130253
     96 C                    -0.397776
     97 H                     0.120283
     98 H                     0.173124
     99 H                     0.138895
    100 C                    -0.350779
    101 H                     0.145968
    102 H                     0.127917
    103 H                     0.129812
    104 C                    -0.359538
    105 H                     0.131656
    106 H                     0.151129
    107 H                     0.145425
    108 C                    -0.364072
    109 H                     0.141461
    110 H                     0.142460
    111 H                     0.134291
    112 C                    -0.173212
    113 O                    -0.439384
    114 C                     0.434738
    115 C                    -0.151730
    116 H                     0.195668
    117 H                     0.177004
    118 N                    -0.498824
    119 C                    -0.172654
    120 C                    -0.100899
    121 C                    -0.065395
    122 C                    -0.155773
    123 H                     0.164199
    124 C                    -0.158596
    125 H                     0.142078
    126 C                    -0.129393
    127 H                     0.164294
    128 H                     0.135084
    129 H                     0.133567
    130 C                    -0.095384
    131 C                    -0.122676
    132 C                    -0.079668
    133 C                    -0.134208
    134 H                     0.174219
    135 C                    -0.126186
    136 H                     0.153337
    137 C                    -0.120188
    138 H                     0.145023
    139 H                     0.129562
    140 C                    -0.369459
    141 H                     0.144705
    142 H                     0.162363
    143 H                     0.150251
    144 H                     0.348033
    145 C                     0.484852
    146 F                    -0.176799
    147 F                    -0.221458
  ----------------------------------------
  Sum of atomic charges =    -1.000000

 -----------------------------------------------------------------
                    Cartesian Multipole Moments
 -----------------------------------------------------------------
    Charge (ESU x 10^10)
                -4.8032
    Dipole Moment (Debye)
         X       7.6403      Y      -0.1152      Z      -4.5193
       Tot       8.8775
    Quadrupole Moments (Debye-Ang)
        XX    -504.2055     XY      -3.6618     YY    -458.2104
        XZ      26.1254     YZ     -13.2985     ZZ    -484.8202
    Octopole Moments (Debye-Ang^2)
       XXX    2383.3500    XXY     652.9321    XYY     679.4217
       YYY    1647.9777    XXZ    -357.7655    XYZ      81.7187
       YYZ    -211.7637    XZZ     775.9858    YZZ     512.0581
       ZZZ    -684.0537
    Hexadecapole Moments (Debye-Ang^3)
      XXXX  -38928.8849   XXXY    3283.4229   XXYY  -11609.8982
      XYYY    3446.0312   YYYY  -34018.0765   XXXZ   -2232.1182
      XXYZ    -276.1389   XYYZ   -1112.6683   YYYZ    -638.3335
      XXZZ  -11355.8606   XYZZ    1318.4703   YYZZ   -9900.6018
      XZZZ   -3191.3928   YZZZ    -413.3521   ZZZZ  -27823.6231
 -----------------------------------------------------------------
Archival summary:
1\1\smp-n131.crc.pitt.edu\SP\ProcedureUnspecified\6-311G**\12516771(1-,1)\bim12\SunJan1703:15:442021SunJan1703:15:442021\0\\#,ProcedureUnspecified,6-311G**,\\-1,1\P\O,1,1.49305\O,1,1.5105,2,121.239\O,1,1.65198,2,112.562,3,126.13,0\C,4,1.39101,1,114.016,2,52.8792,0\C,5,1.3824,4,118.065,1,78.4322,0\C,5,1.42023,4,118.09,1,-102.083,0\C,7,1.37897,5,117.09,4,178.881,0\H,8,1.08586,7,119.131,5,178.22,0\C,8,1.4186,7,122.073,5,-3.67676,0\C,10,1.42027,8,121.187,7,-174.833,0\H,11,1.08738,10,118.492,8,-1.45386,0\C,11,1.37583,10,120.924,8,177.417,0\H,13,1.0865,11,120.255,10,-179.34,0\C,13,1.41514,11,119.875,10,-0.165939,0\H,15,1.08668,13,119.663,11,-178.588,0\C,15,1.37714,13,120.634,11,0.937269,0\H,17,1.08412,15,120.014,13,-179.183,0\C,17,1.42076,15,120.886,13,-0.147971,0\C,6,1.48915,5,119.354,4,3.65991,0\C,20,1.38782,6,119.972,5,-56.6886,0\O,21,1.37633,20,120.164,6,3.29118,0\C,21,1.42392,20,122.63,6,-172.011,0\C,23,1.37719,21,118.072,20,-5.69916,0\H,24,1.08588,23,119.452,21,179.451,0\C,24,1.41796,23,121.912,21,-1.06233,0\C,26,1.42048,24,121.35,23,-175.315,0\H,27,1.0876,26,118.482,24,-0.954885,0\C,27,1.37617,26,120.916,24,178.393,0\H,29,1.08647,27,120.299,26,-179.542,0\C,29,1.41537,27,119.8,26,0.0230021,0\H,31,1.08653,29,119.666,27,-179.041,0\C,31,1.37736,29,120.689,27,0.600942,0\H,33,1.08398,31,119.959,29,-179.449,0\C,33,1.42259,31,120.996,29,-0.318929,0\C,7,1.49603,5,121.603,4,-2.06961,0\C,36,1.414,7,119.907,5,-69.2034,0\C,37,1.39825,36,119.071,7,-174.681,0\H,38,1.08649,37,118.663,36,179.214,0\C,38,1.39657,37,121.97,36,0.652952,0\C,40,1.39457,38,117.855,37,-2.49046,0\H,41,1.08712,40,118.527,38,-178.647,0\C,41,1.39993,40,122.516,38,1.04691,0\C,23,1.49841,21,119.666,20,169.785,0\C,44,1.41367,23,118.515,21,-88.092,0\C,45,1.40053,44,118.473,23,-179.531,0\H,46,1.08384,45,119.427,44,177.979,0\C,46,1.39662,45,122.198,44,-0.723441,0\C,48,1.40043,46,118.137,45,0.827222,0\H,49,1.08624,48,119.023,46,178.222,0\C,49,1.40032,48,122.042,46,0.271977,0\C,40,1.52206,38,121.794,37,179.832,0\H,52,1.09864,40,107.257,38,-165.437,0\C,48,1.52403,46,120.009,45,178.073,0\H,54,1.09749,48,107.161,46,1.28279,0\C,37,1.52621,36,122.488,7,3.38431,0\H,56,1.09238,37,108.634,36,9.28755,0\C,43,1.52727,41,118.757,40,-177.056,0\H,58,1.09315,43,107.843,41,164.633,0\C,51,1.52793,49,121.048,48,172.718,0\H,60,1.09304,51,107.645,49,152.819,0\C,45,1.53157,44,121.358,23,-5.4337,0\H,62,1.09453,45,108.06,44,28.1973,0\C,60,1.53376,51,115.866,49,33.4286,0\H,64,1.08932,60,112.743,51,60.4676,0\H,64,1.09423,60,108.695,51,178.889,0\H,64,1.09716,60,112.287,51,-62.8898,0\C,52,1.53759,40,113.141,38,-47.0916,0\H,68,1.09503,52,111.041,40,-54.2766,0\H,68,1.0962,52,111.578,40,65.986,0\H,68,1.0965,52,110.544,40,-174.521,0\C,62,1.53824,45,115.144,44,147.462,0\H,72,1.09211,62,112.293,45,-61.4483,0\H,72,1.09546,62,112.649,45,60.8871,0\H,72,1.09563,62,109.354,45,-179.998,0\C,56,1.53866,37,111.854,36,127.004,0\H,76,1.09337,56,110.717,37,-51.997,0\H,76,1.09595,56,110.571,37,-171.696,0\H,76,1.09679,56,111.809,37,68.6264,0\C,54,1.5389,48,112.477,46,118.738,0\H,80,1.09541,54,110.732,48,-60.211,0\H,80,1.09611,54,110.85,48,-179.634,0\H,80,1.09697,54,111.271,48,60.6529,0\C,54,1.53953,48,111.284,46,-116.319,0\H,84,1.09509,54,110.933,48,55.5428,0\H,84,1.09641,54,110.765,48,175.887,0\H,84,1.09647,54,111.104,48,-64.2678,0\C,56,1.53989,37,110.852,36,-107.982,0\H,88,1.09586,56,110.929,37,58.2002,0\H,88,1.09669,56,111.082,37,-61.6817,0\H,88,1.09684,56,110.677,37,178.4,0\C,58,1.54012,43,111.46,41,47.5416,0\H,92,1.09199,58,110.111,43,53.5382,0\H,92,1.0935,58,110.138,43,173.426,0\H,92,1.09602,58,112.068,43,-67.7147,0\C,58,1.54014,43,111.911,41,-76.4272,0\H,96,1.09464,58,111.74,43,-57.6158,0\H,96,1.09479,58,110.004,43,-177.634,0\H,96,1.09709,58,110.87,43,62.5422,0\C,52,1.54036,40,110.499,38,77.8873,0\H,100,1.09659,52,110.462,40,58.5062,0\H,100,1.09706,52,110.755,40,-61.2019,0\H,100,1.09756,52,111.159,40,178.811,0\C,62,1.54337,45,109.33,44,-89.1419,0\H,104,1.09314,62,111.565,45,56.7184,0\H,104,1.09648,62,110.647,45,177.103,0\H,104,1.0968,62,110.341,45,-63.2422,0\C,60,1.544,51,109.571,49,-89.9898,0\H,108,1.0926,60,111.861,51,-56.3205,0\H,108,1.09531,60,110.179,51,-176.223,0\H,108,1.09729,60,110.39,51,63.8686,0\H,3,1.7183,1,128.718,2,107.249,0\N,112,1.03038,3,164.868,1,-105.432,0\C,113,1.36152,112,124.182,3,-156.777,0\O,114,1.23777,113,120.202,112,164.914,0\C,113,1.42909,112,117.381,3,17.1824,0\H,116,1.09516,113,107.237,112,12.9976,0\H,116,1.09606,113,109.985,112,129.631,0\C,114,1.49391,113,116.719,112,-14.9354,0\C,119,1.40159,114,117.922,113,159.645,0\H,120,1.08532,119,118.533,114,-0.116,0\C,120,1.39349,119,120.17,114,179.797,0\H,122,1.08667,120,119.86,119,179.406,0\C,122,1.39852,120,119.989,119,-0.871098,0\H,124,1.08682,122,120.222,120,-179.805,0\C,124,1.39628,122,120.05,120,0.0694104,0\H,126,1.08449,124,120.31,122,-179.359,0\C,126,1.39413,124,120.145,122,0.588884,0\H,128,1.08344,126,118.973,124,-179.772,0\C,116,1.5263,113,117.73,112,-109.79,0\C,130,1.42847,116,121.304,113,23.2752,0\F,131,1.31936,130,122.321,116,-31.2701,0\F,131,1.33469,130,119.998,116,-175.152,0\C,130,1.4502,116,117.423,113,-164.726,0\C,134,1.41489,130,122.533,116,149.3,0\H,135,1.08137,134,120.23,130,1.97424,0\C,135,1.38737,134,120.525,130,-175.397,0\H,137,1.08653,135,119.176,134,178.382,0\C,137,1.40312,135,121.394,134,-1.59885,0\C,139,1.40569,137,118.174,135,1.30959,0\H,140,1.08606,139,119.725,137,179.849,0\C,140,1.38396,139,121.051,137,0.180575,0\H,142,1.0831,140,118.707,139,-179.86,0\C,139,1.5053,137,121.219,135,-177.648,0\H,144,1.09405,139,111.728,137,-22.2557,0\H,144,1.09509,139,111.35,137,-143.804,0\H,144,1.09821,139,110.349,137,97.3576,0\\\@

 Total job time:  9296.67s(wall), 90222.74s(cpu) 
 Sun Jan 17 03:15:44 2021

        *************************************************************
        *                                                           *
        *  Thank you very much for using Q-Chem.  Have a nice day.  *
        *                                                           *
        *************************************************************


remove work dirs /scratch/slurm-2254614/qchem154571.0 -- /scratch/slurm-2254614/qchem154571.-1
rm -rf /scratch/slurm-2254614/qchem154571
