You are running Q-Chem version: 5.3.0

#
# job setting
#
local host:  smp-n55.crc.pitt.edu
current dir: /scratch/slurm-2254668
input file:  A_DAB5_ts1_9.in
output file: 
nprocs     : 0
nthreads   : 12
#
# qchem installation setting
#
QC:          /ihome/crc/install/qchem/5.3
QCAUX:       /ihome/crc/install/qchem/5.3/qcaux
QCPROG:      /ihome/crc/install/qchem/5.3/exe/qcprog.exe_s
QCPROG_S:    /ihome/crc/install/qchem/5.3/exe/qcprog.exe_s
PARALLEL:    -DSERIAL
QCMPI:       openmpi
#
# qchem directory setting
#
qcrun:       qchem217425
QCSCRATCH:   /ihome/pliu/bim12/capt1/xtb/A_DAB5_ts1/gaussian/eda3
QCLOCALSCR:  /scratch/slurm-2254668
QCTMPDIR:    /scratch/slurm-2254668
QCFILEPREF:  /scratch/slurm-2254668/qchem217425
QCSAVEDIR:   
workdirs:    /scratch/slurm-2254668/qchem217425
workdir0:    /scratch/slurm-2254668/qchem217425
partmpdirs =  
#
# parallel setting
#
QCRSH:           ssh
QCMPI:           openmpi
QCMPIRUN:        mpirun
QCMACHINEFILE:   /scratch/slurm-2254668/qchem217425/hostfile

#
# env setting
#
exported envs:   QC QCAUX QCSCRATCH QCRUNNAME QCFILEPREF QCPROG QCPROG_S GUIFILE

Running Job 1 of 1 A_DAB5_ts1_9.in
qchem A_DAB5_ts1_9.in_217425.0 /scratch/slurm-2254668/qchem217425/ 0
/ihome/crc/install/qchem/5.3/exe/qcprog.exe_s A_DAB5_ts1_9.in_217425.0 /scratch/slurm-2254668/qchem217425/
                  Welcome to Q-Chem
     A Quantum Leap Into The Future Of Chemistry


 Q-Chem 5.3, Q-Chem, Inc., Pleasanton, CA (2020)

 License issued to: SRG Peng Liu, University of Pittsburgh

 Yihan Shao,  Zhengting Gan,  E. Epifanovsky,  A. T. B. Gilbert,  M. Wormit,  
 J. Kussmann,  A. W. Lange,  A. Behn,  Jia Deng,  Xintian Feng,  D. Ghosh,  
 M. Goldey,  P. R. Horn,  L. D. Jacobson,  I. Kaliman,  T. Kus,  A. Landau,  
 Jie Liu,  E. I. Proynov,  R. M. Richard,  R. P. Steele,  E. J. Sundstrom,  
 H. L. Woodcock III,  P. M. Zimmerman,  D. Zuev,  B. Alam,  B. Albrecht,  
 A. Aldossary,  E. Alguire,  S. A. Baeppler,  D. Barton,  Z. Benda,  
 Y. A. Bernard,  E. J. Berquist,  K. B. Bravaya,  H. Burton,  K. Carter-Fenk,  
 D. Casanova,  Chun-Min Chang,  Yunqing Chen,  A. Chien,  K. D. Closser,  
 M. P. Coons,  S. Coriani,  S. Dasgupta,  A. L. Dempwolff,  M. Diedenhofen,  
 Hainam Do,  R. G. Edgar,  Po-Tung Fang,  S. Faraji,  S. Fatehi,  
 Qingguo Feng,  J. Fosso-Tande,  J. Gayvert,  Qinghui Ge,  A. Ghysels,  
 G. Gidofalvi,  J. Gomes,  J. Gonthier,  S. Gulania,  A. Gunina,  D. Hait,  
 M. W. D. Hanson-Heine,  S. Hammes-Schiffer,  P. H. P. Harbach,  
 A. W. Hauser,  M. F. Herbst,  J. E. Herr,  E. G. Hohenstein,  Z. C. Holden,  
 S. Houck,  Kerwin Hui,  B. C. Huynh,  M. Ivanov,  T.-C. Jagau,  Hyunjun Ji,  
 B. Kaduk,  K. Khistyaev,  Jaehoon Kim,  P. Klunzinger,  K. Koh,  
 D. Kosenkov,  L. Koulias,  T. Kowalczyk,  C. M. Krauter,  A. Kunitsa,  
 Ka Un Lao,  A. Laurent,  K. V. Lawler,  Joonho Lee,  D. Lefrancois,  
 S. Lehtola,  D. S. Levine,  Yi-Pei Li,  You-Sheng Lin,  Fenglai Liu,  
 Kuan-Yu Liu,  E. Livshits,  M. Loipersberger,  A. Luenser,  P. Manohar,  
 E. Mansoor,  S. F. Manzer,  Shan-Ping Mao,  Yuezhi Mao,  N. Mardirossian,  
 A. V. Marenich,  T. Markovich,  L. A. Martinez-Martinez,  S. A. Maurer,  
 N. J. Mayhall,  S. C. McKenzie,  J.-M. Mewes,  P. Morgante,  A. F. Morrison,  
 J. W. Mullinax,  K. Nanda,  T. S. Nguyen-Beck,  R. Olivares-Amaya,  
 K. J. Oosterbaan,  J. A. Parkhill,  S. K. Paul,  F. Pavosevic,  Zheng Pei,  
 T. M. Perrine,  F. Plasser,  P. Pokhilko,  S. Prager,  A. Prociuk,  
 E. Ramos,  B. Rana,  D. R. Rehn,  F. Rob,  E. Rossomme,  M. Scheurer,  
 M. Schneider,  N. Sergueev,  S. M. Sharada,  S. Sharma,  W. Skomorowski,  
 D. W. Small,  T. Stauch,  C. J. Stein,  T. Stein,  Yu-Chuan Su,  
 S. P. Veccham,  Zhen Tao,  A. J. W. Thom,  A. Tkatchenko,  T. Tsuchimochi,  
 N. M. Tubman,  L. Vogt,  M. L. Vidal,  O. Vydrov,  M. A. Watson,  J. Wenzel,  
 M. de Wergifosse,  T. A. Wesolowski,  A. White,  J. Witte,  A. Yamada,  
 Jun Yang,  K. Yao,  S. Yeganeh,  S. R. Yost,  Zhi-Qiang You,  A. Zech,  
 Igor Ying Zhang,  Xing Zhang,  Yan Zhao,  Ying Zhu,  B. R. Brooks,  
 G. K. L. Chan,  C. J. Cramer,  M. S. Gordon,  W. J. Hehre,  A. Klamt,  
 M. W. Schmidt,  C. D. Sherrill,  D. G. Truhlar,  A. Aspuru-Guzik,  R. Baer,  
 A. T. Bell,  N. A. Besley,  Jeng-Da Chai,  A. E. DePrince, III,  
 R. A. DiStasio Jr.,  A. Dreuw,  B. D. Dunietz,  T. R. Furlani,  
 Chao-Ping Hsu,  Yousung Jung,  Jing Kong,  D. S. Lambrecht,  WanZhen Liang,  
 C. Ochsenfeld,  V. A. Rassolov,  L. V. Slipchenko,  J. E. Subotnik,  
 T. Van Voorhis,  J. M. Herbert,  A. I. Krylov,  P. M. W. Gill,  M. Head-Gordon

 Contributors to earlier versions of Q-Chem not listed above: 
 R. D. Adamson,  B. Austin,  J. Baker,  G. J. O. Beran,  K. Brandhorst,  
 S. T. Brown,  E. F. C. Byrd,  A. K. Chakraborty,  C.-L. Cheng,  
 Siu Hung Chien,  D. M. Chipman,  D. L. Crittenden,  H. Dachsel,  
 R. J. Doerksen,  A. D. Dutoi,  L. Fusti-Molnar,  W. A. Goddard III,  
 A. Golubeva-Zadorozhnaya,  S. R. Gwaltney,  G. Hawkins,  A. Heyden,  
 S. Hirata,  G. Kedziora,  F. J. Keil,  C. Kelley,  Jihan Kim,  R. A. King,  
 R. Z. Khaliullin,  P. P. Korambath,  W. Kurlancheek,  A. M. Lee,  M. S. Lee,  
 S. V. Levchenko,  Ching Yeh Lin,  D. Liotard,  R. C. Lochan,  I. Lotan,  
 P. E. Maslen,  N. Nair,  D. P. O'Neill,  D. Neuhauser,  E. Neuscamman,  
 C. M. Oana,  R. Olson,  B. Peters,  R. Peverati,  P. A. Pieniazek,  
 Y. M. Rhee,  J. Ritchie,  M. A. Rohrdanz,  E. Rosta,  N. J. Russ,  
 H. F. Schaefer III,  N. E. Schultz,  N. Shenvi,  A. C. Simmonett,  A. Sodt,  
 D. Stuck,  K. S. Thanthiriwatte,  V. Vanovschi,  Tao Wang,  A. Warshel,  
 C. F. Williams,  Q. Wu,  X. Xu,  W. Zhang

 Please cite Q-Chem as follows:
 Y. Shao et al., Mol. Phys. 113, 184-215 (2015)
 DOI: 10.1080/00268976.2014.952696

 Q-Chem 5.3.0 for Intel X86 EM64T Linux

 Parts of Q-Chem use Armadillo 9.800.1 (Horizon Scraper).
 http://arma.sourceforge.net/

 Q-Chem begins on Sun Jan 17 01:51:17 2021  

Host: 
0

     Scratch files written to /scratch/slurm-2254668/qchem217425//
 Jun1620 |scratch|qcdevops|jenkins|workspace|build_RNUM 7366   
Processing $rem in /ihome/crc/install/qchem/5.3/config/preferences:
Processing $rem in /ihome/pliu/bim12/.qchemrc:
Symmetry turned off for PCM/SM12/SMD calculation

Checking the input file for inconsistencies... 	...done.

--------------------------------------------------------------
User input:
--------------------------------------------------------------
$molecule
1 1
---
0 1
C    -4.240767     2.792087     1.954756
O    -5.370534     0.452369     3.272422
C    -4.385790    -0.170928     2.855476
C    -4.113254     1.496200     1.158518
H    -3.445822     1.671707     0.308161
H    -5.114864     1.303020     0.757513
N    -3.630172     0.339191     1.844265
C    -3.959243    -1.489448     3.413450
C    -3.153185    -2.385886     2.693740
C    -4.411509    -1.837673     4.693552
C    -2.800785    -3.611825     3.256303
H    -2.804968    -2.146816     1.696021
C    -4.045625    -3.058262     5.257569
H    -5.048409    -1.138753     5.226280
C    -3.240077    -3.947079     4.538575
H    -2.184556    -4.302269     2.690908
H    -4.391217    -3.318966     6.254290
H    -2.955067    -4.901399     4.973559
C    -5.034143     3.857808     1.373496
C    -5.177185     3.931253    -0.033364
C    -5.752322     4.788196     2.161216
C    -5.976712     4.897981    -0.617779
H    -4.639860     3.243271    -0.674509
C    -6.573826     5.732467     1.562657
H    -5.699396     4.743340     3.240356
C    -6.693440     5.817760     0.167247
H    -6.052840     4.939631    -1.700364
H    -7.135765     6.419244     2.189646
C    -7.545012     6.877217    -0.479513
H    -8.306164     7.259903     0.206886
H    -6.924359     7.727200    -0.793181
H    -8.044977     6.494767    -1.375610
H    -2.688747     0.000749     1.597582
C    -3.471715     3.015070     3.137709
F    -3.107857     2.031573     3.938374
F    -3.673215     4.114379     3.867303
---
1 1
C     2.750872     3.694662     0.123544
C     1.426972     4.290397     0.674389
H     3.480534     3.527312     0.914903
H     3.179369     4.339857    -0.640722
H     1.591655     4.753119     1.650596
H     1.042587     5.032773    -0.026267
C     2.113758     1.393158     0.638420
H     1.714880     0.490848     0.189040
H     3.014146     1.156442     1.202126
C     1.056739     2.062491     1.533161
H     0.291431     1.325553     1.762540
H     1.486054     2.446554     2.459609
C     0.007236     2.777590    -0.538848
H    -0.630979     1.902216    -0.434715
H    -0.556406     3.598331    -0.988469
C     1.238994     2.444877    -1.397375
H     1.088994     1.475732    -1.861824
H     1.460202     3.209550    -2.133098
N     0.440727     3.199532     0.810969
N     2.461729     2.332332    -0.490327
C     3.676521     1.842251    -1.370611
H     3.704710     2.617883    -2.134897
C     3.323710     0.538590    -2.072953
C     3.166329    -0.695064    -1.424393
C     3.047431     0.623664    -3.446372
C     2.720905    -1.802302    -2.130571
H     3.305866    -0.832385    -0.363140
C     2.594895    -0.497871    -4.125818
H     3.117714     1.568016    -3.975703
C     2.400826    -1.716589    -3.481294
C     4.989515     1.916659    -0.607739
C     5.788294     3.051637    -0.823179
C     5.434603     0.924907     0.278614
C     6.994198     3.186009    -0.148825
H     5.473787     3.843640    -1.495659
C     6.643786     1.086407     0.938412
H     4.881599     0.020806     0.476608
C     7.436806     2.213769     0.745994
F     7.761966     4.266526    -0.339768
F     8.595548     2.352608     1.396600
F     7.077798     0.145623     1.802362
F     2.574178    -2.983262    -1.509184
F     1.902068    -2.767876    -4.137786
F     2.282227    -0.411545    -5.430608
$end

$rem
jobtype         eda
eda2            2
eda_cls_disp    true
method          m062x
basis           6-311G(d,p)
frgm_method     gia
frgm_lpcorr     rs_exact_scf
eda_bsse        false
ithrsh          12
thresh          14
scf_print_frgm  1
unrestricted    false
max_scf_cycles  300
symmetry        false
sym_ignore      true
mem_total       10000
mem_static      5000
solvent_method  smd
$end

$smx
solvent toluene
$end

--------------------------------------------------------------
 ----------------------------------------------------------------
             Standard Nuclear Orientation (Angstroms)
    I     Atom           X                Y                Z
 ----------------------------------------------------------------
    1      C      -4.2407670000     2.7920870000     1.9547560000
    2      O      -5.3705340000     0.4523690000     3.2724220000
    3      C      -4.3857900000    -0.1709280000     2.8554760000
    4      C      -4.1132540000     1.4962000000     1.1585180000
    5      H      -3.4458220000     1.6717070000     0.3081610000
    6      H      -5.1148640000     1.3030200000     0.7575130000
    7      N      -3.6301720000     0.3391910000     1.8442650000
    8      C      -3.9592430000    -1.4894480000     3.4134500000
    9      C      -3.1531850000    -2.3858860000     2.6937400000
   10      C      -4.4115090000    -1.8376730000     4.6935520000
   11      C      -2.8007850000    -3.6118250000     3.2563030000
   12      H      -2.8049680000    -2.1468160000     1.6960210000
   13      C      -4.0456250000    -3.0582620000     5.2575690000
   14      H      -5.0484090000    -1.1387530000     5.2262800000
   15      C      -3.2400770000    -3.9470790000     4.5385750000
   16      H      -2.1845560000    -4.3022690000     2.6909080000
   17      H      -4.3912170000    -3.3189660000     6.2542900000
   18      H      -2.9550670000    -4.9013990000     4.9735590000
   19      C      -5.0341430000     3.8578080000     1.3734960000
   20      C      -5.1771850000     3.9312530000    -0.0333640000
   21      C      -5.7523220000     4.7881960000     2.1612160000
   22      C      -5.9767120000     4.8979810000    -0.6177790000
   23      H      -4.6398600000     3.2432710000    -0.6745090000
   24      C      -6.5738260000     5.7324670000     1.5626570000
   25      H      -5.6993960000     4.7433400000     3.2403560000
   26      C      -6.6934400000     5.8177600000     0.1672470000
   27      H      -6.0528400000     4.9396310000    -1.7003640000
   28      H      -7.1357650000     6.4192440000     2.1896460000
   29      C      -7.5450120000     6.8772170000    -0.4795130000
   30      H      -8.3061640000     7.2599030000     0.2068860000
   31      H      -6.9243590000     7.7272000000    -0.7931810000
   32      H      -8.0449770000     6.4947670000    -1.3756100000
   33      H      -2.6887470000     0.0007490000     1.5975820000
   34      C      -3.4717150000     3.0150700000     3.1377090000
   35      F      -3.1078570000     2.0315730000     3.9383740000
   36      F      -3.6732150000     4.1143790000     3.8673030000
   37      C       2.7508720000     3.6946620000     0.1235440000
   38      C       1.4269720000     4.2903970000     0.6743890000
   39      H       3.4805340000     3.5273120000     0.9149030000
   40      H       3.1793690000     4.3398570000    -0.6407220000
   41      H       1.5916550000     4.7531190000     1.6505960000
   42      H       1.0425870000     5.0327730000    -0.0262670000
   43      C       2.1137580000     1.3931580000     0.6384200000
   44      H       1.7148800000     0.4908480000     0.1890400000
   45      H       3.0141460000     1.1564420000     1.2021260000
   46      C       1.0567390000     2.0624910000     1.5331610000
   47      H       0.2914310000     1.3255530000     1.7625400000
   48      H       1.4860540000     2.4465540000     2.4596090000
   49      C       0.0072360000     2.7775900000    -0.5388480000
   50      H      -0.6309790000     1.9022160000    -0.4347150000
   51      H      -0.5564060000     3.5983310000    -0.9884690000
   52      C       1.2389940000     2.4448770000    -1.3973750000
   53      H       1.0889940000     1.4757320000    -1.8618240000
   54      H       1.4602020000     3.2095500000    -2.1330980000
   55      N       0.4407270000     3.1995320000     0.8109690000
   56      N       2.4617290000     2.3323320000    -0.4903270000
   57      C       3.6765210000     1.8422510000    -1.3706110000
   58      H       3.7047100000     2.6178830000    -2.1348970000
   59      C       3.3237100000     0.5385900000    -2.0729530000
   60      C       3.1663290000    -0.6950640000    -1.4243930000
   61      C       3.0474310000     0.6236640000    -3.4463720000
   62      C       2.7209050000    -1.8023020000    -2.1305710000
   63      H       3.3058660000    -0.8323850000    -0.3631400000
   64      C       2.5948950000    -0.4978710000    -4.1258180000
   65      H       3.1177140000     1.5680160000    -3.9757030000
   66      C       2.4008260000    -1.7165890000    -3.4812940000
   67      C       4.9895150000     1.9166590000    -0.6077390000
   68      C       5.7882940000     3.0516370000    -0.8231790000
   69      C       5.4346030000     0.9249070000     0.2786140000
   70      C       6.9941980000     3.1860090000    -0.1488250000
   71      H       5.4737870000     3.8436400000    -1.4956590000
   72      C       6.6437860000     1.0864070000     0.9384120000
   73      H       4.8815990000     0.0208060000     0.4766080000
   74      C       7.4368060000     2.2137690000     0.7459940000
   75      F       7.7619660000     4.2665260000    -0.3397680000
   76      F       8.5955480000     2.3526080000     1.3966000000
   77      F       7.0777980000     0.1456230000     1.8023620000
   78      F       2.5741780000    -2.9832620000    -1.5091840000
   79      F       1.9020680000    -2.7678760000    -4.1377860000
   80      F       2.2822270000    -0.4115450000    -5.4306080000
 ----------------------------------------------------------------
 Nuclear Repulsion Energy =        5862.60554599 hartrees
 There are      174 alpha and      174 beta electrons
 Requested basis set is 6-311G(d,p)
 There are 368 shells and 1056 basis functions

 Total QAlloc Memory Limit  10000 MB
 Mega-Array Size      4888 MB
 MEM_STATIC part      5000 MB
 
 Citation of the SMD model:
 Marenich, A.V.; Cramer, C.J.; Truhlar, D.G.
 J. Phys. Chem. B 2009, 113, 6378-6396.
 iSolventCode=         168
 Solvent: toluene                                                         
 
 vradii
            1           2           3           4           5           6
    1   1.8500000   2.2940000   1.8500000   1.8500000   1.2000000   1.2000000
            7           8           9          10          11          12
    1   1.8900000   1.8500000   1.8500000   1.8500000   1.8500000   1.2000000
           13          14          15          16          17          18
    1   1.8500000   1.2000000   1.8500000   1.2000000   1.2000000   1.2000000
           19          20          21          22          23          24
    1   1.8500000   1.8500000   1.8500000   1.8500000   1.2000000   1.8500000
           25          26          27          28          29          30
    1   1.2000000   1.8500000   1.2000000   1.2000000   1.8500000   1.2000000
           31          32          33          34          35          36
    1   1.2000000   1.2000000   1.2000000   1.8500000   1.7300000   1.7300000
           37          38          39          40          41          42
    1   1.8500000   1.8500000   1.2000000   1.2000000   1.2000000   1.2000000
           43          44          45          46          47          48
    1   1.8500000   1.2000000   1.2000000   1.8500000   1.2000000   1.2000000
           49          50          51          52          53          54
    1   1.8500000   1.2000000   1.2000000   1.8500000   1.2000000   1.2000000
           55          56          57          58          59          60
    1   1.8900000   1.8900000   1.8500000   1.2000000   1.8500000   1.8500000
           61          62          63          64          65          66
    1   1.8500000   1.8500000   1.2000000   1.8500000   1.2000000   1.8500000
           67          68          69          70          71          72
    1   1.8500000   1.8500000   1.8500000   1.8500000   1.2000000   1.8500000
           73          74          75          76          77          78
    1   1.2000000   1.8500000   1.7300000   1.7300000   1.7300000   1.7300000
           79          80
    1   1.7300000   1.7300000
 Changing PCM_VDW_RADII to SMD_RADIUS
 Discretize the solute cavity surface with Lebedev spheres
	Using 110 Lebedev grid points for each H atom
	Using 194 Lebedev grid points for other atoms
	Atomic van der Waals radii will be scaled by 1.20
 Remove points where switching function is < 1.0e-08
 Keep 5443 surface tesserae and discard 7389 interior tesserae
 Molecular Surface Area = 678.913 Angst**2
 A cutoff of  1.0D-14 yielded  28216 shell pairs
 There are    220976 function pairs (    238892 Cartesian)
 Smallest overlap matrix eigenvalue = 1.59E-04

 Scale SEOQF with 1.000000e-02/1.000000e-02/1.000000e-02

 Standard Electronic Orientation quadrupole field applied
 Nucleus-field energy     =     0.0000000255 hartrees

 -----------------------------------------------------------------------
  General SCF calculation program by
  Eric Jon Sundstrom, Paul Horn, Yuezhi Mao, Dmitri Zuev, Alec White,
  David Stuck, Shaama M.S., Shane Yost, Joonho Lee, David Small,
  Daniel Levine, Susi Lehtola, Hugh Burton, Evgeny Epifanovsky,
  Bang C. Huynh
 -----------------------------------------------------------------------
================================================================
                 ALMO-EDA with the EDA2 driver                  
================================================================
 The second-generation ALMO-EDA (for DFT):                      
 P. R. Horn, Y. Mao and M. Head-Gordon, PCCP, 18, 23067 (2016)  
 Decomposition of the frozen energy:                            
 P. R. Horn, Y. Mao and M. Head-Gordon, JCP, 144, 114107 (2016) 
Using eda2 option set 2
Option set summary: Frozen orbital wavefunction, initial wavefunction decomposition, and traditional AO-based POL.
--------------------------------
Printing EDA Options
--------------------------------
eda_child_super_basis      0
fragmo_guess_mode          0
child_mp                   0
child_mp_orders            0
cls_elec                   1
cls_disp                   1
scfmi_mode                 1
scfmi_occs                 0
scfmi_virts                0
frz_relax                  0
frz_relax_method           0
dc_pen_start               0
dc_pen_conv                0
dc_pen_increment           0
dc_pen_steps               0
dc_pen_thresh_factor       0
dc_pen_pre_newton_thresh   0
frz_ortho_decomp           1
frz_ortho_decomp_conv      6
plot_mo_ortho_frz          0
frgm_method                2
scfmi_freeze_ss            0
separate_rehyb             0
plot_diff_den              0
eda_nocv                   0
eda_vct_relax              1
disp_free_x                0
disp_free_c                0
eda_bsse                   0
eda_pct_a                  0
eda_covp                   0
--------------------------------
Attempting to make child job directory: /scratch/slurm-2254668/qchem217425//Frg1/
Attempting to make child job directory: /scratch/slurm-2254668/qchem217425//Frg2/
Creating input file /scratch/slurm-2254668/qchem217425/Frg1.input
using default PutDataFrgm: nothing
calling putenv with: QCSCRATCH=/scratch/slurm-2254668/qchem217425/ 
calling putenv with: QCLOCALSCR=/scratch/slurm-2254668/qchem217425/ 
Spawning Job For Fragment 0
                  Welcome to Q-Chem
     A Quantum Leap Into The Future Of Chemistry


 Q-Chem 5.3, Q-Chem, Inc., Pleasanton, CA (2020)

 License issued to: SRG Peng Liu, University of Pittsburgh

 Yihan Shao,  Zhengting Gan,  E. Epifanovsky,  A. T. B. Gilbert,  M. Wormit,  
 J. Kussmann,  A. W. Lange,  A. Behn,  Jia Deng,  Xintian Feng,  D. Ghosh,  
 M. Goldey,  P. R. Horn,  L. D. Jacobson,  I. Kaliman,  T. Kus,  A. Landau,  
 Jie Liu,  E. I. Proynov,  R. M. Richard,  R. P. Steele,  E. J. Sundstrom,  
 H. L. Woodcock III,  P. M. Zimmerman,  D. Zuev,  B. Alam,  B. Albrecht,  
 A. Aldossary,  E. Alguire,  S. A. Baeppler,  D. Barton,  Z. Benda,  
 Y. A. Bernard,  E. J. Berquist,  K. B. Bravaya,  H. Burton,  K. Carter-Fenk,  
 D. Casanova,  Chun-Min Chang,  Yunqing Chen,  A. Chien,  K. D. Closser,  
 M. P. Coons,  S. Coriani,  S. Dasgupta,  A. L. Dempwolff,  M. Diedenhofen,  
 Hainam Do,  R. G. Edgar,  Po-Tung Fang,  S. Faraji,  S. Fatehi,  
 Qingguo Feng,  J. Fosso-Tande,  J. Gayvert,  Qinghui Ge,  A. Ghysels,  
 G. Gidofalvi,  J. Gomes,  J. Gonthier,  S. Gulania,  A. Gunina,  D. Hait,  
 M. W. D. Hanson-Heine,  S. Hammes-Schiffer,  P. H. P. Harbach,  
 A. W. Hauser,  M. F. Herbst,  J. E. Herr,  E. G. Hohenstein,  Z. C. Holden,  
 S. Houck,  Kerwin Hui,  B. C. Huynh,  M. Ivanov,  T.-C. Jagau,  Hyunjun Ji,  
 B. Kaduk,  K. Khistyaev,  Jaehoon Kim,  P. Klunzinger,  K. Koh,  
 D. Kosenkov,  L. Koulias,  T. Kowalczyk,  C. M. Krauter,  A. Kunitsa,  
 Ka Un Lao,  A. Laurent,  K. V. Lawler,  Joonho Lee,  D. Lefrancois,  
 S. Lehtola,  D. S. Levine,  Yi-Pei Li,  You-Sheng Lin,  Fenglai Liu,  
 Kuan-Yu Liu,  E. Livshits,  M. Loipersberger,  A. Luenser,  P. Manohar,  
 E. Mansoor,  S. F. Manzer,  Shan-Ping Mao,  Yuezhi Mao,  N. Mardirossian,  
 A. V. Marenich,  T. Markovich,  L. A. Martinez-Martinez,  S. A. Maurer,  
 N. J. Mayhall,  S. C. McKenzie,  J.-M. Mewes,  P. Morgante,  A. F. Morrison,  
 J. W. Mullinax,  K. Nanda,  T. S. Nguyen-Beck,  R. Olivares-Amaya,  
 K. J. Oosterbaan,  J. A. Parkhill,  S. K. Paul,  F. Pavosevic,  Zheng Pei,  
 T. M. Perrine,  F. Plasser,  P. Pokhilko,  S. Prager,  A. Prociuk,  
 E. Ramos,  B. Rana,  D. R. Rehn,  F. Rob,  E. Rossomme,  M. Scheurer,  
 M. Schneider,  N. Sergueev,  S. M. Sharada,  S. Sharma,  W. Skomorowski,  
 D. W. Small,  T. Stauch,  C. J. Stein,  T. Stein,  Yu-Chuan Su,  
 S. P. Veccham,  Zhen Tao,  A. J. W. Thom,  A. Tkatchenko,  T. Tsuchimochi,  
 N. M. Tubman,  L. Vogt,  M. L. Vidal,  O. Vydrov,  M. A. Watson,  J. Wenzel,  
 M. de Wergifosse,  T. A. Wesolowski,  A. White,  J. Witte,  A. Yamada,  
 Jun Yang,  K. Yao,  S. Yeganeh,  S. R. Yost,  Zhi-Qiang You,  A. Zech,  
 Igor Ying Zhang,  Xing Zhang,  Yan Zhao,  Ying Zhu,  B. R. Brooks,  
 G. K. L. Chan,  C. J. Cramer,  M. S. Gordon,  W. J. Hehre,  A. Klamt,  
 M. W. Schmidt,  C. D. Sherrill,  D. G. Truhlar,  A. Aspuru-Guzik,  R. Baer,  
 A. T. Bell,  N. A. Besley,  Jeng-Da Chai,  A. E. DePrince, III,  
 R. A. DiStasio Jr.,  A. Dreuw,  B. D. Dunietz,  T. R. Furlani,  
 Chao-Ping Hsu,  Yousung Jung,  Jing Kong,  D. S. Lambrecht,  WanZhen Liang,  
 C. Ochsenfeld,  V. A. Rassolov,  L. V. Slipchenko,  J. E. Subotnik,  
 T. Van Voorhis,  J. M. Herbert,  A. I. Krylov,  P. M. W. Gill,  M. Head-Gordon

 Contributors to earlier versions of Q-Chem not listed above: 
 R. D. Adamson,  B. Austin,  J. Baker,  G. J. O. Beran,  K. Brandhorst,  
 S. T. Brown,  E. F. C. Byrd,  A. K. Chakraborty,  C.-L. Cheng,  
 Siu Hung Chien,  D. M. Chipman,  D. L. Crittenden,  H. Dachsel,  
 R. J. Doerksen,  A. D. Dutoi,  L. Fusti-Molnar,  W. A. Goddard III,  
 A. Golubeva-Zadorozhnaya,  S. R. Gwaltney,  G. Hawkins,  A. Heyden,  
 S. Hirata,  G. Kedziora,  F. J. Keil,  C. Kelley,  Jihan Kim,  R. A. King,  
 R. Z. Khaliullin,  P. P. Korambath,  W. Kurlancheek,  A. M. Lee,  M. S. Lee,  
 S. V. Levchenko,  Ching Yeh Lin,  D. Liotard,  R. C. Lochan,  I. Lotan,  
 P. E. Maslen,  N. Nair,  D. P. O'Neill,  D. Neuhauser,  E. Neuscamman,  
 C. M. Oana,  R. Olson,  B. Peters,  R. Peverati,  P. A. Pieniazek,  
 Y. M. Rhee,  J. Ritchie,  M. A. Rohrdanz,  E. Rosta,  N. J. Russ,  
 H. F. Schaefer III,  N. E. Schultz,  N. Shenvi,  A. C. Simmonett,  A. Sodt,  
 D. Stuck,  K. S. Thanthiriwatte,  V. Vanovschi,  Tao Wang,  A. Warshel,  
 C. F. Williams,  Q. Wu,  X. Xu,  W. Zhang

 Please cite Q-Chem as follows:
 Y. Shao et al., Mol. Phys. 113, 184-215 (2015)
 DOI: 10.1080/00268976.2014.952696

 Q-Chem 5.3.0 for Intel X86 EM64T Linux

 Parts of Q-Chem use Armadillo 9.800.1 (Horizon Scraper).
 http://arma.sourceforge.net/

 Q-Chem begins on Sun Jan 17 01:51:21 2021  

Host: 
0

     Scratch files written to /scratch/slurm-2254668/qchem217425//Frg1//
 Jun1620 |scratch|qcdevops|jenkins|workspace|build_RNUM 7366   
Processing $rem in /ihome/crc/install/qchem/5.3/config/preferences:
Processing $rem in /ihome/pliu/bim12/.qchemrc:
Symmetry turned off for PCM/SM12/SMD calculation

Checking the input file for inconsistencies... 	...done.

--------------------------------------------------------------
User input:
--------------------------------------------------------------
$molecule
0 1
 6	-4.2407670000	2.7920870000	1.9547560000
 8	-5.3705340000	0.4523690000	3.2724220000
 6	-4.3857900000	-0.1709280000	2.8554760000
 6	-4.1132540000	1.4962000000	1.1585180000
 1	-3.4458220000	1.6717070000	0.3081610000
 1	-5.1148640000	1.3030200000	0.7575130000
 7	-3.6301720000	0.3391910000	1.8442650000
 6	-3.9592430000	-1.4894480000	3.4134500000
 6	-3.1531850000	-2.3858860000	2.6937400000
 6	-4.4115090000	-1.8376730000	4.6935520000
 6	-2.8007850000	-3.6118250000	3.2563030000
 1	-2.8049680000	-2.1468160000	1.6960210000
 6	-4.0456250000	-3.0582620000	5.2575690000
 1	-5.0484090000	-1.1387530000	5.2262800000
 6	-3.2400770000	-3.9470790000	4.5385750000
 1	-2.1845560000	-4.3022690000	2.6909080000
 1	-4.3912170000	-3.3189660000	6.2542900000
 1	-2.9550670000	-4.9013990000	4.9735590000
 6	-5.0341430000	3.8578080000	1.3734960000
 6	-5.1771850000	3.9312530000	-0.0333640000
 6	-5.7523220000	4.7881960000	2.1612160000
 6	-5.9767120000	4.8979810000	-0.6177790000
 1	-4.6398600000	3.2432710000	-0.6745090000
 6	-6.5738260000	5.7324670000	1.5626570000
 1	-5.6993960000	4.7433400000	3.2403560000
 6	-6.6934400000	5.8177600000	0.1672470000
 1	-6.0528400000	4.9396310000	-1.7003640000
 1	-7.1357650000	6.4192440000	2.1896460000
 6	-7.5450120000	6.8772170000	-0.4795130000
 1	-8.3061640000	7.2599030000	0.2068860000
 1	-6.9243590000	7.7272000000	-0.7931810000
 1	-8.0449770000	6.4947670000	-1.3756100000
 1	-2.6887470000	0.0007490000	1.5975820000
 6	-3.4717150000	3.0150700000	3.1377090000
 9	-3.1078570000	2.0315730000	3.9383740000
 9	-3.6732150000	4.1143790000	3.8673030000
$end
$rem
EDA2		2
EDA_CLS_DISP		TRUE
METHOD		M062X
BASIS		6-311G(D,P)
EDA_BSSE		FALSE
ITHRSH		12
THRESH		14
SCF_PRINT_FRGM		1
UNRESTRICTED		FALSE
MAX_SCF_CYCLES		300
SYMMETRY		FALSE
SYM_IGNORE		TRUE
SOLVENT_METHOD		SMD
!required keywords
JOBTYPE		SP
SYM_IGNORE		TRUE
SUBSYSTEM		TRUE
GEN_SCFMAN		TRUE
CHILD_INSTRUCTION		2
SYM_IGNORE		TRUE
SCFMI		0
RI_K 0		
PARI_K 0		
MIN_PARI_K 0		
IARI_K 0		
OCC_RI_K 0		
PURECART		1111
MEM_STATIC		5000
MEM_TOTAL		10000
GUI		0
CHILD_MP		0
CHILD_MP_ORDERS		0
FRZ_RELAX		0
FRZ_RELAX_METHOD		0
EDA_CLS_ELEC		1
EDA_CLS_DISP		1
FRZ_ORTHO_DECOMP		1
EDA2		FALSE
FRGM_METHOD		FALSE
CIS_N_ROOTS  0
LOCAL_CIS    0
CIS_RLX_DNS  1
ECP		0
$end
$smx
solvent toluene
$end
--------------------------------------------------------------
 ----------------------------------------------------------------
             Standard Nuclear Orientation (Angstroms)
    I     Atom           X                Y                Z
 ----------------------------------------------------------------
    1      C      -4.2407670000     2.7920870000     1.9547560000
    2      O      -5.3705340000     0.4523690000     3.2724220000
    3      C      -4.3857900000    -0.1709280000     2.8554760000
    4      C      -4.1132540000     1.4962000000     1.1585180000
    5      H      -3.4458220000     1.6717070000     0.3081610000
    6      H      -5.1148640000     1.3030200000     0.7575130000
    7      N      -3.6301720000     0.3391910000     1.8442650000
    8      C      -3.9592430000    -1.4894480000     3.4134500000
    9      C      -3.1531850000    -2.3858860000     2.6937400000
   10      C      -4.4115090000    -1.8376730000     4.6935520000
   11      C      -2.8007850000    -3.6118250000     3.2563030000
   12      H      -2.8049680000    -2.1468160000     1.6960210000
   13      C      -4.0456250000    -3.0582620000     5.2575690000
   14      H      -5.0484090000    -1.1387530000     5.2262800000
   15      C      -3.2400770000    -3.9470790000     4.5385750000
   16      H      -2.1845560000    -4.3022690000     2.6909080000
   17      H      -4.3912170000    -3.3189660000     6.2542900000
   18      H      -2.9550670000    -4.9013990000     4.9735590000
   19      C      -5.0341430000     3.8578080000     1.3734960000
   20      C      -5.1771850000     3.9312530000    -0.0333640000
   21      C      -5.7523220000     4.7881960000     2.1612160000
   22      C      -5.9767120000     4.8979810000    -0.6177790000
   23      H      -4.6398600000     3.2432710000    -0.6745090000
   24      C      -6.5738260000     5.7324670000     1.5626570000
   25      H      -5.6993960000     4.7433400000     3.2403560000
   26      C      -6.6934400000     5.8177600000     0.1672470000
   27      H      -6.0528400000     4.9396310000    -1.7003640000
   28      H      -7.1357650000     6.4192440000     2.1896460000
   29      C      -7.5450120000     6.8772170000    -0.4795130000
   30      H      -8.3061640000     7.2599030000     0.2068860000
   31      H      -6.9243590000     7.7272000000    -0.7931810000
   32      H      -8.0449770000     6.4947670000    -1.3756100000
   33      H      -2.6887470000     0.0007490000     1.5975820000
   34      C      -3.4717150000     3.0150700000     3.1377090000
   35      F      -3.1078570000     2.0315730000     3.9383740000
   36      F      -3.6732150000     4.1143790000     3.8673030000
 ----------------------------------------------------------------
 Nuclear Repulsion Energy =        1564.16210248 hartrees
 There are       75 alpha and       75 beta electrons
 Requested basis set is 6-311G(d,p)
 There are 165 shells and 468 basis functions

 Total QAlloc Memory Limit  10000 MB
 Mega-Array Size      4888 MB
 MEM_STATIC part      5000 MB
 
 Citation of the SMD model:
 Marenich, A.V.; Cramer, C.J.; Truhlar, D.G.
 J. Phys. Chem. B 2009, 113, 6378-6396.
 iSolventCode=         168
 Solvent: toluene                                                         
 
 vradii
            1           2           3           4           5           6
    1   1.8500000   2.2940000   1.8500000   1.8500000   1.2000000   1.2000000
            7           8           9          10          11          12
    1   1.8900000   1.8500000   1.8500000   1.8500000   1.8500000   1.2000000
           13          14          15          16          17          18
    1   1.8500000   1.2000000   1.8500000   1.2000000   1.2000000   1.2000000
           19          20          21          22          23          24
    1   1.8500000   1.8500000   1.8500000   1.8500000   1.2000000   1.8500000
           25          26          27          28          29          30
    1   1.2000000   1.8500000   1.2000000   1.2000000   1.8500000   1.2000000
           31          32          33          34          35          36
    1   1.2000000   1.2000000   1.2000000   1.8500000   1.7300000   1.7300000
 Changing PCM_VDW_RADII to SMD_RADIUS
 Discretize the solute cavity surface with Lebedev spheres
	Using 110 Lebedev grid points for each H atom
	Using 194 Lebedev grid points for other atoms
	Atomic van der Waals radii will be scaled by 1.20
 Remove points where switching function is < 1.0e-08
 Keep 2437 surface tesserae and discard 3287 interior tesserae
 Molecular Surface Area = 315.403 Angst**2
 A cutoff of  1.0D-14 yielded   8375 shell pairs
 There are     70107 function pairs (     76307 Cartesian)
 Smallest overlap matrix eigenvalue = 1.59E-04

 Scale SEOQF with 1.000000e-02/1.000000e-02/1.000000e-02

 Standard Electronic Orientation quadrupole field applied
 Nucleus-field energy     =     0.0000000131 hartrees
 Guess from superposition of atomic densities
 Warning:  Energy on first SCF cycle will be non-variational
 SAD guess density has 150.000000 electrons

 -----------------------------------------------------------------------
  General SCF calculation program by
  Eric Jon Sundstrom, Paul Horn, Yuezhi Mao, Dmitri Zuev, Alec White,
  David Stuck, Shaama M.S., Shane Yost, Joonho Lee, David Small,
  Daniel Levine, Susi Lehtola, Hugh Burton, Evgeny Epifanovsky,
  Bang C. Huynh
 -----------------------------------------------------------------------
 Exchange:     0.5400 Hartree-Fock + 1.0000 M06-2X
 Correlation:  1.0000 M06-2X
 Using SG-3 standard quadrature grid
Energy prior to optimization (guess energy) = -986.019319877035
Begin Timing: Total SCF Calculation
begin iterations for algorithm: DIIS         
the SCF tolerance is set to 1.00e-05
    1    -986.0193198770      3.39e-03     00000 
    2    -985.8273288213      4.67e-03     00000 
    3    -986.3256748004      6.96e-04     00000 
    4    -986.3354525586      3.10e-04     00000 
    5    -986.3375172305      8.87e-05     00000 
    6    -986.3377095550      2.66e-05     00000 
    7    -986.3377279701      1.05e-05     00000 
    8    -986.3377310950      4.51e-06     00000 Convergence criterion met
Timing for Total SCF: 75.00s (wall), 680.83s (cpu)
(3)  G-ENP(liq) elect-nuc-pol free energy of system     -986.337731095 a.u.
(4)  G-CDS(liq) cavity-dispersion-solvent structure 
     free energy                                               -6.6713 kcal/mol
(6)  G-S(liq) free energy of system                     -986.348362421 a.u.
 Exchange:     0.5400 Hartree-Fock + 1.0000 M06-2X
 Correlation:  1.0000 M06-2X
 Using SG-3 standard quadrature grid
 Hartree-Fock
E_pcm = -0.0118557911
E_cds = -0.0106313258
 
 --------------------------------------------------------------
 
                    Orbital Energies (a.u.)
 --------------------------------------------------------------
 
 Alpha MOs
 -- Occupied --
-25.2659 -25.2626 -19.5852 -14.7722 -10.7065 -10.6459 -10.5870 -10.5709
-10.5598 -10.5574 -10.5566 -10.5540 -10.5527 -10.5509 -10.5503 -10.5492
-10.5456 -10.5432 -10.5404 -10.5393 -10.5311  -1.4254  -1.3622  -1.1557
 -1.0361  -0.9708  -0.9677  -0.9115  -0.8674  -0.8511  -0.8461  -0.8454
 -0.7952  -0.7783  -0.7260  -0.7092  -0.6966  -0.6863  -0.6704  -0.6655
 -0.6539  -0.6289  -0.6133  -0.6051  -0.5682  -0.5669  -0.5500  -0.5413
 -0.5357  -0.5233  -0.5227  -0.5212  -0.5129  -0.5027  -0.4955  -0.4909
 -0.4866  -0.4841  -0.4785  -0.4629  -0.4620  -0.4466  -0.4296  -0.4246
 -0.4208  -0.4082  -0.4055  -0.3955  -0.3414  -0.3256  -0.3198  -0.3148
 -0.3120  -0.3098  -0.2599
 -- Virtual --
 -0.0167  -0.0109   0.0170   0.0244   0.0583   0.0740   0.0855   0.0897
  0.0983   0.1036   0.1153   0.1195   0.1312   0.1321   0.1455   0.1477
  0.1618   0.1654   0.1736   0.1832   0.1967   0.2059   0.2140   0.2157
  0.2223   0.2511   0.2640   0.2783   0.2892   0.2972   0.3052   0.3112
  0.3164   0.3219   0.3251   0.3290   0.3350   0.3439   0.3451   0.3695
  0.3711   0.3777   0.4004   0.4046   0.4116   0.4224   0.4246   0.4279
  0.4346   0.4405   0.4439   0.4495   0.4538   0.4634   0.4655   0.4748
  0.4754   0.4820   0.4831   0.4902   0.4915   0.4979   0.5032   0.5084
  0.5097   0.5205   0.5301   0.5342   0.5472   0.5522   0.5574   0.5599
  0.5740   0.5834   0.5939   0.6023   0.6060   0.6161   0.6202   0.6297
  0.6316   0.6403   0.6428   0.6516   0.6521   0.6564   0.6586   0.6616
  0.6623   0.6673   0.6730   0.6811   0.6865   0.6911   0.7021   0.7076
  0.7119   0.7196   0.7286   0.7535   0.7676   0.7724   0.7787   0.7919
  0.8080   0.8152   0.8201   0.8326   0.8366   0.8463   0.8551   0.8633
  0.8753   0.8803   0.8881   0.8934   0.9004   0.9169   0.9217   0.9427
  0.9586   0.9709   0.9775   1.0014   1.0237   1.0315   1.0369   1.0453
  1.0556   1.0574   1.0592   1.0715   1.0797   1.0837   1.0942   1.1030
  1.1227   1.1251   1.1314   1.1412   1.1702   1.1764   1.1936   1.2012
  1.2083   1.2258   1.2574   1.2759   1.2831   1.2919   1.2967   1.3215
  1.3480   1.3528   1.3799   1.3902   1.3983   1.4009   1.4157   1.4285
  1.4443   1.4706   1.4744   1.4819   1.4872   1.4974   1.5043   1.5064
  1.5137   1.5151   1.5325   1.5436   1.5481   1.5711   1.5769   1.5804
  1.5889   1.5936   1.5947   1.6056   1.6194   1.6229   1.6298   1.6436
  1.6464   1.6486   1.6586   1.6739   1.6805   1.7033   1.7046   1.7248
  1.7313   1.7372   1.7478   1.7623   1.7697   1.7807   1.7876   1.7928
  1.8062   1.8096   1.8139   1.8210   1.8302   1.8342   1.8380   1.8491
  1.8873   1.8953   1.9017   1.9098   1.9232   1.9338   1.9376   1.9438
  1.9492   1.9548   1.9574   1.9612   1.9752   1.9852   1.9926   2.0025
  2.0113   2.0172   2.0310   2.0440   2.0627   2.0766   2.0869   2.0952
  2.1059   2.1181   2.1373   2.1457   2.1696   2.1842   2.1862   2.2205
  2.2381   2.2625   2.3048   2.3290   2.3369   2.3399   2.3479   2.3559
  2.3729   2.3752   2.3922   2.3990   2.4157   2.4231   2.4333   2.4394
  2.4562   2.4797   2.5068   2.5276   2.5442   2.5536   2.5717   2.5884
  2.5924   2.6162   2.6209   2.6260   2.6311   2.6349   2.6406   2.6502
  2.6590   2.6603   2.6608   2.6712   2.6806   2.6835   2.6942   2.7074
  2.7154   2.7197   2.7435   2.7574   2.7698   2.7779   2.7944   2.7975
  2.8224   2.8411   2.8449   2.8638   2.8744   2.8868   2.9031   2.9168
  2.9326   2.9413   2.9551   2.9603   2.9628   2.9820   2.9874   3.0045
  3.0424   3.0769   3.0926   3.1124   3.1322   3.1911   3.2007   3.2130
  3.2257   3.2391   3.2444   3.2887   3.3835   3.3864   3.3929   3.4080
  3.4116   3.4360   3.4647   3.5100   3.5255   3.5426   3.5936   3.6013
  3.6271   3.6304   3.6779   3.6952   3.7249   3.8157   3.8289   3.8541
  3.8573   3.8652   3.8769   3.8873   3.9089   3.9572   3.9912   4.0109
  4.0283   4.0539   4.0632   4.1078   4.1384   4.1536   4.1623   4.1677
  4.1967   4.3001   4.3189   4.3507   4.4125   4.7335   4.8426   4.8508
  4.8792   4.9214   5.0642   5.0885   5.2493   5.7618   6.2582   6.2794
  6.3494   6.4502   6.5083   6.7970  23.5118  23.6238  23.6955  23.9081
 23.9149  23.9553  23.9874  23.9896  23.9993  24.0033  24.0220  24.0992
 24.1273  24.1616  24.1894  24.2466  24.2505  35.7019  50.1362  66.8710
 66.8835
 --------------------------------------------------------------
 
          Ground-State Mulliken Net Atomic Charges

     Atom                 Charge (a.u.)
  ----------------------------------------
      1 C                    -0.181453
      2 O                    -0.417674
      3 C                     0.484027
      4 C                    -0.137871
      5 H                     0.177374
      6 H                     0.194505
      7 N                    -0.501591
      8 C                    -0.213352
      9 C                    -0.076325
     10 C                    -0.057080
     11 C                    -0.151476
     12 H                     0.142422
     13 C                    -0.148151
     14 H                     0.156151
     15 C                    -0.119183
     16 H                     0.143918
     17 H                     0.149780
     18 H                     0.148406
     19 C                    -0.088122
     20 C                    -0.115713
     21 C                    -0.078687
     22 C                    -0.119236
     23 H                     0.144848
     24 C                    -0.120494
     25 H                     0.158240
     26 C                    -0.120201
     27 H                     0.139025
     28 H                     0.138689
     29 C                    -0.365626
     30 H                     0.150651
     31 H                     0.167270
     32 H                     0.154146
     33 H                     0.282680
     34 C                     0.482590
     35 F                    -0.189371
     36 F                    -0.213116
  ----------------------------------------
  Sum of atomic charges =     0.000000

 -----------------------------------------------------------------
                    Cartesian Multipole Moments
 -----------------------------------------------------------------
    Charge (ESU x 10^10)
                 0.0000
    Dipole Moment (Debye)
         X       2.2774      Y      -1.6185      Z      -3.4299
       Tot       4.4238
    Quadrupole Moments (Debye-Ang)
        XX    -138.6787     XY      -6.1606     YY    -106.6001
        XZ      19.0042     YZ     -16.7916     ZZ    -125.0153
    Octopole Moments (Debye-Ang^2)
       XXX    1786.0187    XXY     -91.5196    XYY     444.1913
       YYY    -560.8787    XXZ    -391.4508    XYZ      57.5568
       YYZ    -262.3949    XZZ     567.5475    YZZ    -255.9101
       ZZZ    -821.3187
    Hexadecapole Moments (Debye-Ang^3)
      XXXX  -17590.7174   XXXY    3049.6149   XXYY   -3574.7505
      XYYY    3219.8950   YYYY   -9500.1718   XXXZ    3992.6323
      XXYZ     -99.9513   XYYZ    1042.5868   YYYZ     -70.3109
      XXZZ   -3906.1516   XYZZ    1508.8063   YYZZ   -2489.0620
      XZZZ    3163.6972   YZZZ    -196.7049   ZZZZ   -5860.3321
 -----------------------------------------------------------------
Archival summary:
1\1\smp-n55.crc.pitt.edu\SP\ProcedureUnspecified\6-311G**\2111715\bim12\SunJan1701:53:012021SunJan1701:53:012021\0\\#,ProcedureUnspecified,6-311G**,\\0,1\F\C,1,1.31936\F,2,1.33469,1,108.897\C,2,1.42847,1,122.321,3,-147.345,0\C,4,1.4502,2,120.78,1,156.999,0\C,5,1.41489,4,122.533,2,-38.657,0\H,6,1.08137,5,120.23,4,1.97424,0\C,6,1.38737,5,120.525,4,-175.397,0\H,8,1.08653,6,119.176,5,178.382,0\C,8,1.40312,6,121.394,5,-1.59885,0\C,10,1.40569,8,118.174,6,1.30959,0\H,11,1.08606,10,119.725,8,179.849,0\C,11,1.38396,10,121.051,8,0.180575,0\H,13,1.0831,11,118.707,10,-179.86,0\C,10,1.5053,8,121.219,6,-177.648,0\H,15,1.09405,10,111.728,8,-22.2557,0\H,15,1.09509,10,111.35,8,-143.804,0\H,15,1.09821,10,110.349,8,97.3576,0\C,4,1.5263,2,121.304,1,-31.2701,0\H,19,1.09516,4,108.658,2,-98.7874,0\H,19,1.09606,4,105.317,2,146.253,0\N,19,1.42909,4,117.73,2,23.2752,0\H,22,1.03038,19,117.381,4,-109.79,0\C,22,1.36152,19,118.172,4,64.5429,0\O,24,1.23777,22,120.202,19,-9.00077,0\C,24,1.49391,22,116.719,19,171.149,0\C,26,1.40159,24,117.922,22,159.645,0\H,27,1.08532,26,118.533,24,-0.116,0\C,27,1.39349,26,120.17,24,179.797,0\H,29,1.08667,27,119.86,26,179.406,0\C,29,1.39852,27,119.989,26,-0.871098,0\H,31,1.08682,29,120.222,27,-179.805,0\C,31,1.39628,29,120.05,27,0.0694104,0\H,33,1.08449,31,120.31,29,-179.359,0\C,33,1.39413,31,120.145,29,0.588884,0\H,35,1.08344,33,118.973,31,-179.772,0\\\@

 Total job time:  100.42s(wall), 911.52s(cpu) 
 Sun Jan 17 01:53:01 2021

        *************************************************************
        *                                                           *
        *  Thank you very much for using Q-Chem.  Have a nice day.  *
        *                                                           *
        *************************************************************


Done Job For Fragment 0
calling putenv with: QCSCRATCH=/ihome/pliu/bim12/capt1/xtb/A_DAB5_ts1/gaussian/eda3 
calling putenv with: QCLOCALSCR=/scratch/slurm-2254668 
calling putenv with: QCTHREADS=12 
Creating input file /scratch/slurm-2254668/qchem217425/Frg2.input
using default PutDataFrgm: nothing
calling putenv with: QCSCRATCH=/scratch/slurm-2254668/qchem217425/ 
calling putenv with: QCLOCALSCR=/scratch/slurm-2254668/qchem217425/ 
Spawning Job For Fragment 1
                  Welcome to Q-Chem
     A Quantum Leap Into The Future Of Chemistry


 Q-Chem 5.3, Q-Chem, Inc., Pleasanton, CA (2020)

 License issued to: SRG Peng Liu, University of Pittsburgh

 Yihan Shao,  Zhengting Gan,  E. Epifanovsky,  A. T. B. Gilbert,  M. Wormit,  
 J. Kussmann,  A. W. Lange,  A. Behn,  Jia Deng,  Xintian Feng,  D. Ghosh,  
 M. Goldey,  P. R. Horn,  L. D. Jacobson,  I. Kaliman,  T. Kus,  A. Landau,  
 Jie Liu,  E. I. Proynov,  R. M. Richard,  R. P. Steele,  E. J. Sundstrom,  
 H. L. Woodcock III,  P. M. Zimmerman,  D. Zuev,  B. Alam,  B. Albrecht,  
 A. Aldossary,  E. Alguire,  S. A. Baeppler,  D. Barton,  Z. Benda,  
 Y. A. Bernard,  E. J. Berquist,  K. B. Bravaya,  H. Burton,  K. Carter-Fenk,  
 D. Casanova,  Chun-Min Chang,  Yunqing Chen,  A. Chien,  K. D. Closser,  
 M. P. Coons,  S. Coriani,  S. Dasgupta,  A. L. Dempwolff,  M. Diedenhofen,  
 Hainam Do,  R. G. Edgar,  Po-Tung Fang,  S. Faraji,  S. Fatehi,  
 Qingguo Feng,  J. Fosso-Tande,  J. Gayvert,  Qinghui Ge,  A. Ghysels,  
 G. Gidofalvi,  J. Gomes,  J. Gonthier,  S. Gulania,  A. Gunina,  D. Hait,  
 M. W. D. Hanson-Heine,  S. Hammes-Schiffer,  P. H. P. Harbach,  
 A. W. Hauser,  M. F. Herbst,  J. E. Herr,  E. G. Hohenstein,  Z. C. Holden,  
 S. Houck,  Kerwin Hui,  B. C. Huynh,  M. Ivanov,  T.-C. Jagau,  Hyunjun Ji,  
 B. Kaduk,  K. Khistyaev,  Jaehoon Kim,  P. Klunzinger,  K. Koh,  
 D. Kosenkov,  L. Koulias,  T. Kowalczyk,  C. M. Krauter,  A. Kunitsa,  
 Ka Un Lao,  A. Laurent,  K. V. Lawler,  Joonho Lee,  D. Lefrancois,  
 S. Lehtola,  D. S. Levine,  Yi-Pei Li,  You-Sheng Lin,  Fenglai Liu,  
 Kuan-Yu Liu,  E. Livshits,  M. Loipersberger,  A. Luenser,  P. Manohar,  
 E. Mansoor,  S. F. Manzer,  Shan-Ping Mao,  Yuezhi Mao,  N. Mardirossian,  
 A. V. Marenich,  T. Markovich,  L. A. Martinez-Martinez,  S. A. Maurer,  
 N. J. Mayhall,  S. C. McKenzie,  J.-M. Mewes,  P. Morgante,  A. F. Morrison,  
 J. W. Mullinax,  K. Nanda,  T. S. Nguyen-Beck,  R. Olivares-Amaya,  
 K. J. Oosterbaan,  J. A. Parkhill,  S. K. Paul,  F. Pavosevic,  Zheng Pei,  
 T. M. Perrine,  F. Plasser,  P. Pokhilko,  S. Prager,  A. Prociuk,  
 E. Ramos,  B. Rana,  D. R. Rehn,  F. Rob,  E. Rossomme,  M. Scheurer,  
 M. Schneider,  N. Sergueev,  S. M. Sharada,  S. Sharma,  W. Skomorowski,  
 D. W. Small,  T. Stauch,  C. J. Stein,  T. Stein,  Yu-Chuan Su,  
 S. P. Veccham,  Zhen Tao,  A. J. W. Thom,  A. Tkatchenko,  T. Tsuchimochi,  
 N. M. Tubman,  L. Vogt,  M. L. Vidal,  O. Vydrov,  M. A. Watson,  J. Wenzel,  
 M. de Wergifosse,  T. A. Wesolowski,  A. White,  J. Witte,  A. Yamada,  
 Jun Yang,  K. Yao,  S. Yeganeh,  S. R. Yost,  Zhi-Qiang You,  A. Zech,  
 Igor Ying Zhang,  Xing Zhang,  Yan Zhao,  Ying Zhu,  B. R. Brooks,  
 G. K. L. Chan,  C. J. Cramer,  M. S. Gordon,  W. J. Hehre,  A. Klamt,  
 M. W. Schmidt,  C. D. Sherrill,  D. G. Truhlar,  A. Aspuru-Guzik,  R. Baer,  
 A. T. Bell,  N. A. Besley,  Jeng-Da Chai,  A. E. DePrince, III,  
 R. A. DiStasio Jr.,  A. Dreuw,  B. D. Dunietz,  T. R. Furlani,  
 Chao-Ping Hsu,  Yousung Jung,  Jing Kong,  D. S. Lambrecht,  WanZhen Liang,  
 C. Ochsenfeld,  V. A. Rassolov,  L. V. Slipchenko,  J. E. Subotnik,  
 T. Van Voorhis,  J. M. Herbert,  A. I. Krylov,  P. M. W. Gill,  M. Head-Gordon

 Contributors to earlier versions of Q-Chem not listed above: 
 R. D. Adamson,  B. Austin,  J. Baker,  G. J. O. Beran,  K. Brandhorst,  
 S. T. Brown,  E. F. C. Byrd,  A. K. Chakraborty,  C.-L. Cheng,  
 Siu Hung Chien,  D. M. Chipman,  D. L. Crittenden,  H. Dachsel,  
 R. J. Doerksen,  A. D. Dutoi,  L. Fusti-Molnar,  W. A. Goddard III,  
 A. Golubeva-Zadorozhnaya,  S. R. Gwaltney,  G. Hawkins,  A. Heyden,  
 S. Hirata,  G. Kedziora,  F. J. Keil,  C. Kelley,  Jihan Kim,  R. A. King,  
 R. Z. Khaliullin,  P. P. Korambath,  W. Kurlancheek,  A. M. Lee,  M. S. Lee,  
 S. V. Levchenko,  Ching Yeh Lin,  D. Liotard,  R. C. Lochan,  I. Lotan,  
 P. E. Maslen,  N. Nair,  D. P. O'Neill,  D. Neuhauser,  E. Neuscamman,  
 C. M. Oana,  R. Olson,  B. Peters,  R. Peverati,  P. A. Pieniazek,  
 Y. M. Rhee,  J. Ritchie,  M. A. Rohrdanz,  E. Rosta,  N. J. Russ,  
 H. F. Schaefer III,  N. E. Schultz,  N. Shenvi,  A. C. Simmonett,  A. Sodt,  
 D. Stuck,  K. S. Thanthiriwatte,  V. Vanovschi,  Tao Wang,  A. Warshel,  
 C. F. Williams,  Q. Wu,  X. Xu,  W. Zhang

 Please cite Q-Chem as follows:
 Y. Shao et al., Mol. Phys. 113, 184-215 (2015)
 DOI: 10.1080/00268976.2014.952696

 Q-Chem 5.3.0 for Intel X86 EM64T Linux

 Parts of Q-Chem use Armadillo 9.800.1 (Horizon Scraper).
 http://arma.sourceforge.net/

 Q-Chem begins on Sun Jan 17 01:53:01 2021  

Host: 
0

     Scratch files written to /scratch/slurm-2254668/qchem217425//Frg2//
 Jun1620 |scratch|qcdevops|jenkins|workspace|build_RNUM 7366   
Processing $rem in /ihome/crc/install/qchem/5.3/config/preferences:
Processing $rem in /ihome/pliu/bim12/.qchemrc:
Symmetry turned off for PCM/SM12/SMD calculation

Checking the input file for inconsistencies... 	...done.

--------------------------------------------------------------
User input:
--------------------------------------------------------------
$molecule
1 1
 6	2.7508720000	3.6946620000	0.1235440000
 6	1.4269720000	4.2903970000	0.6743890000
 1	3.4805340000	3.5273120000	0.9149030000
 1	3.1793690000	4.3398570000	-0.6407220000
 1	1.5916550000	4.7531190000	1.6505960000
 1	1.0425870000	5.0327730000	-0.0262670000
 6	2.1137580000	1.3931580000	0.6384200000
 1	1.7148800000	0.4908480000	0.1890400000
 1	3.0141460000	1.1564420000	1.2021260000
 6	1.0567390000	2.0624910000	1.5331610000
 1	0.2914310000	1.3255530000	1.7625400000
 1	1.4860540000	2.4465540000	2.4596090000
 6	0.0072360000	2.7775900000	-0.5388480000
 1	-0.6309790000	1.9022160000	-0.4347150000
 1	-0.5564060000	3.5983310000	-0.9884690000
 6	1.2389940000	2.4448770000	-1.3973750000
 1	1.0889940000	1.4757320000	-1.8618240000
 1	1.4602020000	3.2095500000	-2.1330980000
 7	0.4407270000	3.1995320000	0.8109690000
 7	2.4617290000	2.3323320000	-0.4903270000
 6	3.6765210000	1.8422510000	-1.3706110000
 1	3.7047100000	2.6178830000	-2.1348970000
 6	3.3237100000	0.5385900000	-2.0729530000
 6	3.1663290000	-0.6950640000	-1.4243930000
 6	3.0474310000	0.6236640000	-3.4463720000
 6	2.7209050000	-1.8023020000	-2.1305710000
 1	3.3058660000	-0.8323850000	-0.3631400000
 6	2.5948950000	-0.4978710000	-4.1258180000
 1	3.1177140000	1.5680160000	-3.9757030000
 6	2.4008260000	-1.7165890000	-3.4812940000
 6	4.9895150000	1.9166590000	-0.6077390000
 6	5.7882940000	3.0516370000	-0.8231790000
 6	5.4346030000	0.9249070000	0.2786140000
 6	6.9941980000	3.1860090000	-0.1488250000
 1	5.4737870000	3.8436400000	-1.4956590000
 6	6.6437860000	1.0864070000	0.9384120000
 1	4.8815990000	0.0208060000	0.4766080000
 6	7.4368060000	2.2137690000	0.7459940000
 9	7.7619660000	4.2665260000	-0.3397680000
 9	8.5955480000	2.3526080000	1.3966000000
 9	7.0777980000	0.1456230000	1.8023620000
 9	2.5741780000	-2.9832620000	-1.5091840000
 9	1.9020680000	-2.7678760000	-4.1377860000
 9	2.2822270000	-0.4115450000	-5.4306080000
$end
$rem
EDA2		2
EDA_CLS_DISP		TRUE
METHOD		M062X
BASIS		6-311G(D,P)
EDA_BSSE		FALSE
ITHRSH		12
THRESH		14
SCF_PRINT_FRGM		1
UNRESTRICTED		FALSE
MAX_SCF_CYCLES		300
SYMMETRY		FALSE
SYM_IGNORE		TRUE
SOLVENT_METHOD		SMD
!required keywords
JOBTYPE		SP
SYM_IGNORE		TRUE
SUBSYSTEM		TRUE
GEN_SCFMAN		TRUE
CHILD_INSTRUCTION		2
SYM_IGNORE		TRUE
SCFMI		0
RI_K 0		
PARI_K 0		
MIN_PARI_K 0		
IARI_K 0		
OCC_RI_K 0		
PURECART		1111
MEM_STATIC		5000
MEM_TOTAL		10000
GUI		0
CHILD_MP		0
CHILD_MP_ORDERS		0
FRZ_RELAX		0
FRZ_RELAX_METHOD		0
EDA_CLS_ELEC		1
EDA_CLS_DISP		1
FRZ_ORTHO_DECOMP		1
EDA2		FALSE
FRGM_METHOD		FALSE
CIS_N_ROOTS  0
LOCAL_CIS    0
CIS_RLX_DNS  1
ECP		0
$end
$smx
solvent toluene
$end
--------------------------------------------------------------
 ----------------------------------------------------------------
             Standard Nuclear Orientation (Angstroms)
    I     Atom           X                Y                Z
 ----------------------------------------------------------------
    1      C       2.7508720000     3.6946620000     0.1235440000
    2      C       1.4269720000     4.2903970000     0.6743890000
    3      H       3.4805340000     3.5273120000     0.9149030000
    4      H       3.1793690000     4.3398570000    -0.6407220000
    5      H       1.5916550000     4.7531190000     1.6505960000
    6      H       1.0425870000     5.0327730000    -0.0262670000
    7      C       2.1137580000     1.3931580000     0.6384200000
    8      H       1.7148800000     0.4908480000     0.1890400000
    9      H       3.0141460000     1.1564420000     1.2021260000
   10      C       1.0567390000     2.0624910000     1.5331610000
   11      H       0.2914310000     1.3255530000     1.7625400000
   12      H       1.4860540000     2.4465540000     2.4596090000
   13      C       0.0072360000     2.7775900000    -0.5388480000
   14      H      -0.6309790000     1.9022160000    -0.4347150000
   15      H      -0.5564060000     3.5983310000    -0.9884690000
   16      C       1.2389940000     2.4448770000    -1.3973750000
   17      H       1.0889940000     1.4757320000    -1.8618240000
   18      H       1.4602020000     3.2095500000    -2.1330980000
   19      N       0.4407270000     3.1995320000     0.8109690000
   20      N       2.4617290000     2.3323320000    -0.4903270000
   21      C       3.6765210000     1.8422510000    -1.3706110000
   22      H       3.7047100000     2.6178830000    -2.1348970000
   23      C       3.3237100000     0.5385900000    -2.0729530000
   24      C       3.1663290000    -0.6950640000    -1.4243930000
   25      C       3.0474310000     0.6236640000    -3.4463720000
   26      C       2.7209050000    -1.8023020000    -2.1305710000
   27      H       3.3058660000    -0.8323850000    -0.3631400000
   28      C       2.5948950000    -0.4978710000    -4.1258180000
   29      H       3.1177140000     1.5680160000    -3.9757030000
   30      C       2.4008260000    -1.7165890000    -3.4812940000
   31      C       4.9895150000     1.9166590000    -0.6077390000
   32      C       5.7882940000     3.0516370000    -0.8231790000
   33      C       5.4346030000     0.9249070000     0.2786140000
   34      C       6.9941980000     3.1860090000    -0.1488250000
   35      H       5.4737870000     3.8436400000    -1.4956590000
   36      C       6.6437860000     1.0864070000     0.9384120000
   37      H       4.8815990000     0.0208060000     0.4766080000
   38      C       7.4368060000     2.2137690000     0.7459940000
   39      F       7.7619660000     4.2665260000    -0.3397680000
   40      F       8.5955480000     2.3526080000     1.3966000000
   41      F       7.0777980000     0.1456230000     1.8023620000
   42      F       2.5741780000    -2.9832620000    -1.5091840000
   43      F       1.9020680000    -2.7678760000    -4.1377860000
   44      F       2.2822270000    -0.4115450000    -5.4306080000
 ----------------------------------------------------------------
 Nuclear Repulsion Energy =        2629.55262789 hartrees
 There are       99 alpha and       99 beta electrons
 Requested basis set is 6-311G(d,p)
 There are 203 shells and 588 basis functions

 Total QAlloc Memory Limit  10000 MB
 Mega-Array Size      4888 MB
 MEM_STATIC part      5000 MB
 
 Citation of the SMD model:
 Marenich, A.V.; Cramer, C.J.; Truhlar, D.G.
 J. Phys. Chem. B 2009, 113, 6378-6396.
 iSolventCode=         168
 Solvent: toluene                                                         
 
 vradii
            1           2           3           4           5           6
    1   1.8500000   1.8500000   1.2000000   1.2000000   1.2000000   1.2000000
            7           8           9          10          11          12
    1   1.8500000   1.2000000   1.2000000   1.8500000   1.2000000   1.2000000
           13          14          15          16          17          18
    1   1.8500000   1.2000000   1.2000000   1.8500000   1.2000000   1.2000000
           19          20          21          22          23          24
    1   1.8900000   1.8900000   1.8500000   1.2000000   1.8500000   1.8500000
           25          26          27          28          29          30
    1   1.8500000   1.8500000   1.2000000   1.8500000   1.2000000   1.8500000
           31          32          33          34          35          36
    1   1.8500000   1.8500000   1.8500000   1.8500000   1.2000000   1.8500000
           37          38          39          40          41          42
    1   1.2000000   1.8500000   1.7300000   1.7300000   1.7300000   1.7300000
           43          44
    1   1.7300000   1.7300000
 Changing PCM_VDW_RADII to SMD_RADIUS
 Discretize the solute cavity surface with Lebedev spheres
	Using 110 Lebedev grid points for each H atom
	Using 194 Lebedev grid points for other atoms
	Atomic van der Waals radii will be scaled by 1.20
 Remove points where switching function is < 1.0e-08
 Keep 3006 surface tesserae and discard 4102 interior tesserae
 Molecular Surface Area = 363.511 Angst**2
 A cutoff of  1.0D-14 yielded  14227 shell pairs
 There are    116595 function pairs (    126619 Cartesian)
 Smallest overlap matrix eigenvalue = 2.12E-04

 Scale SEOQF with 1.000000e-02/1.000000e-01/1.000000e-02

 Standard Electronic Orientation quadrupole field applied
 Nucleus-field energy     =     0.0000000880 hartrees
 Guess from superposition of atomic densities
 Warning:  Energy on first SCF cycle will be non-variational
 SAD guess density has 199.000000 electrons

 -----------------------------------------------------------------------
  General SCF calculation program by
  Eric Jon Sundstrom, Paul Horn, Yuezhi Mao, Dmitri Zuev, Alec White,
  David Stuck, Shaama M.S., Shane Yost, Joonho Lee, David Small,
  Daniel Levine, Susi Lehtola, Hugh Burton, Evgeny Epifanovsky,
  Bang C. Huynh
 -----------------------------------------------------------------------
 Exchange:     0.5400 Hartree-Fock + 1.0000 M06-2X
 Correlation:  1.0000 M06-2X
 Using SG-3 standard quadrature grid
Energy prior to optimization (guess energy) = -1442.089172690462
Begin Timing: Total SCF Calculation
begin iterations for algorithm: DIIS         
the SCF tolerance is set to 1.00e-05
    1   -1442.0891726905      2.54e-03     00000 
    2   -1442.1359809449      2.70e-03     00000 
    3   -1442.3734707739      3.99e-04     00000 
    4   -1442.3788590232      1.36e-04     00000 
    5   -1442.3794595808      5.87e-05     00000 
    6   -1442.3795879710      9.14e-06     00000 Convergence criterion met
Timing for Total SCF: 109.00s (wall), 986.47s (cpu)
(3)  G-ENP(liq) elect-nuc-pol free energy of system    -1442.379587971 a.u.
(4)  G-CDS(liq) cavity-dispersion-solvent structure 
     free energy                                               -4.0001 kcal/mol
(6)  G-S(liq) free energy of system                    -1442.385962566 a.u.
 Exchange:     0.5400 Hartree-Fock + 1.0000 M06-2X
 Correlation:  1.0000 M06-2X
 Using SG-3 standard quadrature grid
 Hartree-Fock
E_pcm = -0.0537905600
E_cds = -0.0063745950
 
 --------------------------------------------------------------
 
                    Orbital Energies (a.u.)
 --------------------------------------------------------------
 
 Alpha MOs
 -- Occupied --
-25.3300 -25.3288 -25.3286 -25.3261 -25.3254 -25.3248 -14.9608 -14.8258
-10.7259 -10.7251 -10.7243 -10.7243 -10.7239 -10.7232 -10.7148 -10.6771
-10.6751 -10.6742 -10.6662 -10.6651 -10.6527 -10.6513 -10.6506 -10.6456
-10.6441 -10.6440 -10.6437  -1.4623  -1.4609  -1.4505  -1.4489  -1.4423
 -1.4404  -1.2200  -1.1149  -1.0762  -1.0692  -0.9960  -0.9717  -0.9701
 -0.9489  -0.9479  -0.9440  -0.8985  -0.8401  -0.8369  -0.8366  -0.8182
 -0.8151  -0.8068  -0.7824  -0.7364  -0.7323  -0.7217  -0.7146  -0.7102
 -0.7078  -0.6988  -0.6960  -0.6900  -0.6784  -0.6694  -0.6678  -0.6644
 -0.6563  -0.6394  -0.6377  -0.6335  -0.6263  -0.6234  -0.6222  -0.6157
 -0.6093  -0.6027  -0.6009  -0.5876  -0.5861  -0.5806  -0.5760  -0.5734
 -0.5723  -0.5561  -0.5537  -0.5513  -0.5466  -0.5268  -0.5235  -0.5212
 -0.5145  -0.5107  -0.5063  -0.4968  -0.4851  -0.4784  -0.3972  -0.3944
 -0.3908  -0.3826  -0.3686
 -- Virtual --
 -0.0929  -0.0675  -0.0601  -0.0556  -0.0261  -0.0095   0.0062   0.0126
  0.0202   0.0218   0.0265   0.0341   0.0358   0.0527   0.0603   0.0635
  0.0694   0.0822   0.0853   0.0893   0.0996   0.0997   0.1021   0.1103
  0.1204   0.1217   0.1309   0.1320   0.1331   0.1414   0.1524   0.1566
  0.1608   0.1782   0.1841   0.1945   0.2042   0.2073   0.2197   0.2380
  0.2421   0.2486   0.2571   0.2638   0.2694   0.2760   0.2845   0.2989
  0.3033   0.3068   0.3177   0.3225   0.3239   0.3288   0.3353   0.3415
  0.3450   0.3488   0.3520   0.3562   0.3632   0.3747   0.3758   0.3807
  0.3867   0.3980   0.4006   0.4076   0.4097   0.4125   0.4237   0.4267
  0.4361   0.4371   0.4432   0.4492   0.4604   0.4622   0.4707   0.4811
  0.4842   0.4941   0.4969   0.5033   0.5076   0.5100   0.5128   0.5203
  0.5216   0.5351   0.5373   0.5402   0.5440   0.5490   0.5545   0.5590
  0.5625   0.5724   0.5765   0.5884   0.5930   0.5942   0.5974   0.6009
  0.6087   0.6197   0.6221   0.6313   0.6332   0.6376   0.6399   0.6485
  0.6527   0.6556   0.6612   0.6717   0.6842   0.6874   0.6969   0.7093
  0.7110   0.7176   0.7209   0.7233   0.7377   0.7415   0.7470   0.7628
  0.7668   0.7949   0.8106   0.8180   0.8219   0.8373   0.8411   0.8521
  0.8586   0.8797   0.8954   0.9035   0.9129   0.9245   0.9385   0.9526
  0.9609   0.9635   0.9685   0.9713   0.9793   0.9895   0.9948   1.0084
  1.0241   1.0292   1.0329   1.0416   1.0441   1.0585   1.0627   1.0655
  1.0712   1.0821   1.0908   1.0955   1.1132   1.1276   1.1473   1.1629
  1.1682   1.1718   1.1847   1.1881   1.1992   1.2067   1.2228   1.2371
  1.2407   1.2458   1.2521   1.2580   1.2693   1.2817   1.2961   1.3070
  1.3199   1.3385   1.3543   1.3596   1.3612   1.3652   1.3725   1.3796
  1.3928   1.3987   1.4058   1.4143   1.4234   1.4252   1.4333   1.4385
  1.4474   1.4501   1.4650   1.4690   1.4723   1.4780   1.4927   1.5017
  1.5086   1.5196   1.5243   1.5345   1.5430   1.5474   1.5527   1.5561
  1.5701   1.5776   1.5834   1.5922   1.6019   1.6143   1.6198   1.6295
  1.6315   1.6379   1.6481   1.6510   1.6573   1.6726   1.6795   1.6850
  1.6955   1.7053   1.7069   1.7126   1.7207   1.7274   1.7406   1.7478
  1.7575   1.7617   1.7638   1.7660   1.7842   1.7863   1.8037   1.8065
  1.8094   1.8166   1.8323   1.8344   1.8423   1.8456   1.8566   1.8600
  1.8636   1.8677   1.8758   1.8797   1.8876   1.9004   1.9051   1.9133
  1.9161   1.9197   1.9289   1.9546   1.9608   1.9732   1.9836   1.9967
  2.0057   2.0175   2.0224   2.0359   2.0437   2.0521   2.0630   2.0684
  2.0919   2.1010   2.1125   2.1165   2.1269   2.1387   2.1490   2.1614
  2.1738   2.1845   2.1894   2.2120   2.2357   2.2421   2.2455   2.2466
  2.2619   2.2719   2.2798   2.2981   2.3108   2.3355   2.3492   2.3598
  2.3659   2.3879   2.4006   2.4153   2.4262   2.4372   2.4535   2.4566
  2.4676   2.4808   2.4852   2.4908   2.5036   2.5071   2.5129   2.5217
  2.5438   2.5507   2.5838   2.6029   2.6201   2.6276   2.6375   2.6398
  2.6432   2.6476   2.6542   2.6635   2.6733   2.6837   2.6913   2.7013
  2.7137   2.7184   2.7255   2.7332   2.7514   2.7518   2.7734   2.7759
  2.7840   2.8033   2.8171   2.8327   2.8565   2.8636   2.8716   2.8783
  2.8956   2.9011   2.9224   2.9518   2.9728   2.9745   2.9863   3.0149
  3.0239   3.0371   3.0523   3.0534   3.0564   3.0702   3.0802   3.1432
  3.1570   3.1603   3.1745   3.2115   3.2291   3.2753   3.3206   3.3467
  3.3627   3.3691   3.3976   3.4266   3.5209   3.5499   3.5587   3.5638
  3.5817   3.5907   3.5945   3.5986   3.6483   3.6573   3.6635   3.6725
  3.6916   3.7027   3.7971   3.7989   3.8038   3.8050   3.8131   3.8144
  3.8214   3.8225   3.8562   3.8585   3.8836   3.8907   3.9056   3.9351
  3.9534   3.9598   3.9686   3.9745   3.9750   4.0061   4.0074   4.0260
  4.0271   4.0429   4.0514   4.0516   4.0738   4.0890   4.1045   4.1435
  4.1565   4.1580   4.1760   4.2254   4.2261   4.2752   4.2884   4.5668
  4.5801   4.6247   4.6512   4.6518   4.7469   4.7481   4.7910   4.7996
  4.8099   4.8117   4.8761   4.8912   6.1129   6.1141   6.1643   6.1651
  6.2251   6.2267   6.2394   6.2400   6.3480   6.3519   6.4169   6.4233
  6.4532   6.4565   6.5910   6.5924   6.7398   6.7432  23.3591  23.3958
 23.7722  23.7889  23.8110  23.8245  23.8282  23.8704  23.8717  23.8815
 23.8910  23.9256  23.9320  23.9862  23.9916  24.0489  24.0537  24.1087
 24.1169  35.4263  35.6824  66.8076  66.8093  66.8376  66.8390  66.8521
 66.8541
 --------------------------------------------------------------
 
          Ground-State Mulliken Net Atomic Charges

     Atom                 Charge (a.u.)
  ----------------------------------------
      1 C                    -0.177509
      2 C                    -0.190108
      3 H                     0.225096
      4 H                     0.213981
      5 H                     0.209688
      6 H                     0.193708
      7 C                    -0.207024
      8 H                     0.222388
      9 H                     0.227934
     10 C                    -0.187707
     11 H                     0.207255
     12 H                     0.198377
     13 C                    -0.198792
     14 H                     0.197107
     15 H                     0.207636
     16 C                    -0.177291
     17 H                     0.232248
     18 H                     0.215411
     19 N                    -0.333911
     20 N                    -0.393379
     21 C                    -0.227899
     22 H                     0.261086
     23 C                    -0.045880
     24 C                    -0.147616
     25 C                    -0.113466
     26 C                     0.247999
     27 H                     0.180685
     28 C                     0.247143
     29 H                     0.181643
     30 C                     0.215470
     31 C                    -0.042725
     32 C                    -0.116574
     33 C                    -0.118251
     34 C                     0.247900
     35 H                     0.180384
     36 C                     0.236708
     37 H                     0.188087
     38 C                     0.216745
     39 F                    -0.216314
     40 F                    -0.200948
     41 F                    -0.222031
     42 F                    -0.216176
     43 F                    -0.200857
     44 F                    -0.220222
  ----------------------------------------
  Sum of atomic charges =     1.000000

 -----------------------------------------------------------------
                    Cartesian Multipole Moments
 -----------------------------------------------------------------
    Charge (ESU x 10^10)
                 4.8032
    Dipole Moment (Debye)
         X      10.9652      Y      12.5301      Z      -2.7300
       Tot      16.8728
    Quadrupole Moments (Debye-Ang)
        XX    -131.5037     XY      28.6256     YY    -117.1078
        XZ     -10.6010     YZ     -14.3355     ZZ    -145.5612
    Octopole Moments (Debye-Ang^2)
       XXX   -1696.7929    XXY    -158.9527    XYY    -468.6418
       YYY    -441.2787    XXZ      57.2861    XYZ     -28.5680
       YYZ     104.6936    XZZ    -525.6150    YZZ    -148.1056
       ZZZ     419.9023
    Hexadecapole Moments (Debye-Ang^3)
      XXXX  -18308.9503   XXXY   -2711.5476   XXYY   -3668.4611
      XYYY   -2170.9797   YYYY   -4750.3775   XXXZ     303.2684
      XXYZ    -275.6121   XYYZ     207.2358   YYYZ    -581.6584
      XXZZ   -3454.9173   XYZZ    -688.9466   YYZZ   -1442.7433
      XZZZ     790.7659   YZZZ    -553.9755   ZZZZ   -4139.6138
 -----------------------------------------------------------------
Archival summary:
1\1\smp-n55.crc.pitt.edu\SP\ProcedureUnspecified\6-311G**\621917(1+,1)\bim12\SunJan1701:55:382021SunJan1701:55:382021\0\\#,ProcedureUnspecified,6-311G**,\\1,1\N\C,1,1.50904\H,2,1.08407,1,107.025\H,2,1.08835,1,109.391,3,118.856,0\C,1,1.52197,2,107.41,3,168.649,0\H,5,1.08811,1,108.8,2,169.721,0\H,5,1.08934,1,106.424,2,51.5496,0\C,1,1.52659,2,107.795,3,51.3087,0\H,8,1.08395,1,106.968,2,173.367,0\H,8,1.08511,1,107.409,2,-66.7243,0\C,8,1.53785,1,109.013,2,50.9453,0\H,11,1.08832,8,110.432,1,-105.705,0\H,11,1.09246,8,110.244,1,132.602,0\N,11,1.47917,8,109.659,1,13.5626,0\C,14,1.47693,11,108.784,8,53.1237,0\H,15,1.09078,14,109.073,11,47.8441,0\H,15,1.0928,14,109.315,11,167.909,0\C,14,1.48118,11,110.355,8,-67.0674,0\H,18,1.08692,14,109.302,11,-68.6496,0\H,18,1.09093,14,107.907,11,172.145,0\C,1,1.57823,2,113.668,3,-68.2864,0\H,21,1.08928,1,100.962,2,176.622,0\C,21,1.52035,1,111.695,2,-69.7808,0\C,23,1.4026,21,123.816,1,82.9773,0\H,24,1.07815,23,123.108,21,0.929178,0\C,24,1.38692,23,119.667,21,-179.476,0\F,26,1.34902,24,120.262,23,179.418,0\C,26,1.39171,24,121.692,23,0.0051131,0\F,28,1.33613,26,120.732,24,179.678,0\C,28,1.3935,26,118.227,24,-0.77589,0\F,30,1.3392,28,118.19,26,-179.585,0\C,30,1.38817,28,121.354,26,0.783153,0\H,32,1.08555,30,118.816,28,178.767,0\C,21,1.52227,1,110.174,2,63.7842,0\C,34,1.40261,21,124.465,1,-69.8708,0\H,35,1.07916,34,123.514,21,-1.49462,0\C,35,1.38675,34,120.188,21,173.897,0\F,37,1.3425,35,120.117,34,179.822,0\C,37,1.39077,35,121.284,34,-1.03625,0\F,39,1.33602,37,120.974,35,-176.249,0\C,39,1.39225,37,118.13,35,2.7546,0\F,41,1.3445,39,118.233,37,-179.797,0\C,41,1.38718,39,121.766,37,-2.32687,0\H,43,1.08486,41,119.073,39,-175.792,0\\\@

 Total job time:  156.43s(wall), 1470.95s(cpu) 
 Sun Jan 17 01:55:38 2021

        *************************************************************
        *                                                           *
        *  Thank you very much for using Q-Chem.  Have a nice day.  *
        *                                                           *
        *************************************************************


Done Job For Fragment 1
calling putenv with: QCSCRATCH=/ihome/pliu/bim12/capt1/xtb/A_DAB5_ts1/gaussian/eda3 
calling putenv with: QCLOCALSCR=/scratch/slurm-2254668 
calling putenv with: QCTHREADS=12 
Doing General SCFMI
 Exchange:     0.5400 Hartree-Fock + 1.0000 M06-2X
 Correlation:  1.0000 M06-2X
 Using SG-3 standard quadrature grid
performing fock build before subrot guess so that all methods have access
Printing subrot_rss_gen Method Specification:
Occupied Subspace Method is 0
Virtual Subspace Method is 0
Energy of the unrelaxed supersystem initial determinant -2428.646075147674
performing fock build before subrot guess so that all methods have access
Printing subrot_rss_gen Method Specification:
Occupied Subspace Method is 0
Virtual Subspace Method is 0
Energy of the unrelaxed supersystem initial determinant w/ solvent -2428.714742934885
write pseudocanon occs and virts to disk
write pseudocanon orbital energies to disk
Tolerance of ortho_decomp_scf: 1.00e-06
GDM subspace size: 20
Beginning the Orthogonal Decomposition of the Initial Supersystem Wavefunction
    1   -2428.6511444572      7.15e-04     ortho_decomp Preconditoned Steepest Descent
    2   -2428.6511751018      8.66e-06     ortho_decomp BFGS Step
    3   -2428.6511751201      2.10e-07     ortho_decomp 00000 Convergence criterion met
 Hartree-Fock
 Hartree-Fock
 Hartree-Fock
 Exchange:     0.5400 Hartree-Fock + 1.0000 M06-2X
 Correlation:  1.0000 M06-2X
 Using SG-3 standard quadrature grid
Doing General SCFMI
 Exchange:     0.5400 Hartree-Fock + 1.0000 M06-2X
 Correlation:  1.0000 M06-2X
 Using SG-3 standard quadrature grid
performing fock build at end of subrot_r(subrot) constructor so that all methods have access
<S^2> of initial wavefunction before polarization iterations 0.0000000000
Beginning iterations for the determination of the polarized wavefunction
Energy prior to optimization (guess energy) = -2428.714742934887
Begin Timing: Total SCF Calculation
begin iterations for algorithm: DIIS         
the SCF tolerance is set to 1.00e-08
    1   -2428.7147429349      2.73e-05     00000 
    2   -2428.7151484253      1.97e-05     00000 
    3   -2428.7152424006      8.99e-06     00000 
    4   -2428.7152611078      2.83e-06     00000 
    5   -2428.7152626256      1.15e-06     00000 
    6   -2428.7152631629      3.13e-07     00000 
    7   -2428.7152631440      1.06e-07     00000 
    8   -2428.7152631472      5.15e-08     00000 
    9   -2428.7152632509      1.74e-08     00000 
   10   -2428.7152629429      7.97e-09     00000 Convergence criterion met
write pseudocanon occs and virts to disk
write pseudocanon orbital energies to disk
Timing for Total SCF: 595.00s (wall), 5475.88s (cpu)
<S^2> of polarized wavefunction after polarization iterations 0.0000000000
relaxing scfmi constraint to allow all rotations in the entire AO span
Doing General SCFMI
 Exchange:     0.5400 Hartree-Fock + 1.0000 M06-2X
 Correlation:  1.0000 M06-2X
 Using SG-3 standard quadrature grid
performing fock build at end of subrot_r(subrot) constructor so that all methods have access
<S^2> of polarized wavefunction before ct-allowed iterations 0.0000000000
Beginning iterations for the determination of the CT-Allowed wavefunction
Energy prior to optimization (guess energy) = -2428.715263191064
Begin Timing: Total SCF Calculation
begin iterations for algorithm: DIIS         
the SCF tolerance is set to 1.00e-08
    1   -2428.7152631911      2.10e-05     00000 
    2   -2428.7158168605      1.84e-06     00000 
    3   -2428.7158234761      4.60e-07     00000 
    4   -2428.7158235867      3.43e-07     00000 
    5   -2428.7158239379      6.39e-08     00000 
    6   -2428.7158234052      2.12e-08     00000 
    7   -2428.7158234362      1.19e-08     00000 
    8   -2428.7158237050      2.64e-09     00000 Convergence criterion met
write pseudocanon occs and virts to disk
write pseudocanon orbital energies to disk
Timing for Total SCF: 458.00s (wall), 4165.16s (cpu)
<S^2> of ct_allowed wavefunction after ct-allowed iterations 0.0000000000

================================
        Results of EDA2         
================================
Basic EDA Quantities
--------------------
Fragment Energies (Ha):
1 -986.3483624208
2-1442.3859625660
--------------------
  E_prp (kJ/mol) = 0.0000
  E_sol (kJ/mol) = -7.6360
  E_frz (kJ/mol) = 14.6966
  E_pol (kJ/mol) = -1.3653
  E_vct (kJ/mol) = -1.4723
  E_int (kJ/mol) = 4.2230
--------------------


Initial Wavefunction Decomposition
--------------------
  --------------------
  Orthogonal Fragment Subspace Decomposition:
  --------------------
     E_elec   (ELEC)   (kJ/mol) = 16.1203
     E_pauli  (PAULI)  (kJ/mol) = 0.9130
     E_disp   (DISP)   (kJ/mol) = -2.3367
     --------------------
     Terms summing to E_pauli:
     --------------------
        E_kep_pauli       (kJ/mol) = 1.3065
        E_disp_free_pauli (kJ/mol) = -0.3934
  --------------------
  Classical Frozen Decomposition:
  --------------------
     E_cls_elec  (CLS ELEC)  (kJ/mol) = 16.5996
     E_mod_pauli (MOD PAULI) (kJ/mol) = 0.4952 (CLS PAULI - CLS DISP)
     E_cls_disp  (CLS DISP)  (kJ/mol) = -2.3982
  --------------------
--------------------

Simplified EDA Summary (kJ/mol)
--------------------
 PREPARATION     0.0000
 SOLVATION       -7.6360
 FROZEN          17.0333      (does not include dispersion)
[PAULI           0.9130]     (if this is negligible, then frozen describes electrostatics)
 DISPERSION      -2.3367
 POLARIZATION    -1.3653
 CHARGE TRANSFER -1.4723
 TOTAL           4.2230     (PRP + SOL + FRZ + DISP + POL + CT)
--------------------
 
 --------------------------------------------------------------
 
                    Orbital Energies (a.u.)
 --------------------------------------------------------------
 
 Alpha MOs
 -- Occupied --
-25.3325 -25.3310 -25.3298 -25.3274 -25.3269 -25.3257 -25.3010 -25.2962
-19.6186 -14.9631 -14.8282 -14.8091 -10.7409 -10.7278 -10.7267 -10.7259
-10.7248 -10.7245 -10.7235 -10.7153 -10.6803 -10.6782 -10.6774 -10.6762
-10.6675 -10.6654 -10.6535 -10.6533 -10.6531 -10.6476 -10.6457 -10.6449
-10.6445 -10.6246 -10.6068 -10.5918 -10.5901 -10.5891 -10.5845 -10.5830
-10.5821 -10.5807 -10.5791 -10.5788 -10.5744 -10.5719 -10.5694 -10.5583
 -1.4644  -1.4616  -1.4600  -1.4527  -1.4497  -1.4444  -1.4412  -1.3966
 -1.2219  -1.1897  -1.1167  -1.0776  -1.0725  -1.0702  -1.0027  -0.9992
 -0.9972  -0.9738  -0.9716  -0.9506  -0.9490  -0.9451  -0.9448  -0.8998
 -0.8991  -0.8822  -0.8779  -0.8769  -0.8419  -0.8385  -0.8384  -0.8304
 -0.8197  -0.8162  -0.8092  -0.8082  -0.7838  -0.7588  -0.7423  -0.7380
 -0.7334  -0.7280  -0.7231  -0.7179  -0.7162  -0.7114  -0.7091  -0.7047
 -0.7006  -0.6999  -0.6977  -0.6918  -0.6876  -0.6800  -0.6714  -0.6686
 -0.6657  -0.6617  -0.6576  -0.6480  -0.6416  -0.6384  -0.6380  -0.6351
 -0.6276  -0.6254  -0.6229  -0.6171  -0.6109  -0.6047  -0.6017  -0.6007
 -0.6000  -0.5893  -0.5878  -0.5836  -0.5823  -0.5779  -0.5750  -0.5747
 -0.5738  -0.5692  -0.5575  -0.5560  -0.5553  -0.5549  -0.5539  -0.5525
 -0.5481  -0.5455  -0.5366  -0.5282  -0.5266  -0.5251  -0.5240  -0.5222
 -0.5176  -0.5158  -0.5143  -0.5122  -0.5118  -0.5075  -0.4987  -0.4954
 -0.4952  -0.4869  -0.4803  -0.4753  -0.4617  -0.4560  -0.4517  -0.4391
 -0.4364  -0.4266  -0.3985  -0.3960  -0.3918  -0.3837  -0.3748  -0.3702
 -0.3597  -0.3531  -0.3468  -0.3432  -0.3414  -0.2935
 -- Virtual --
 -0.0942  -0.0689  -0.0614  -0.0569  -0.0518  -0.0435  -0.0301  -0.0204
 -0.0132  -0.0074   0.0009   0.0068   0.0157   0.0193   0.0235   0.0272
  0.0278   0.0343   0.0393   0.0431   0.0550   0.0580   0.0607   0.0641
  0.0652   0.0715   0.0766   0.0817   0.0862   0.0866   0.0879   0.0904
  0.0962   0.0984   0.0991   0.1014   0.1046   0.1154   0.1174   0.1195
  0.1220   0.1255   0.1271   0.1310   0.1323   0.1365   0.1383   0.1420
  0.1502   0.1515   0.1548   0.1600   0.1647   0.1695   0.1739   0.1763
  0.1812   0.1819   0.1874   0.1905   0.1957   0.2034   0.2086   0.2180
  0.2236   0.2301   0.2365   0.2415   0.2447   0.2511   0.2560   0.2587
  0.2647   0.2679   0.2717   0.2748   0.2764   0.2819   0.2838   0.2866
  0.2912   0.2921   0.2975   0.2990   0.3024   0.3044   0.3049   0.3129
  0.3155   0.3166   0.3215   0.3240   0.3287   0.3341   0.3380   0.3404
  0.3419   0.3423   0.3474   0.3483   0.3529   0.3593   0.3622   0.3659
  0.3699   0.3737   0.3763   0.3781   0.3832   0.3851   0.3901   0.3952
  0.3974   0.4001   0.4003   0.4026   0.4064   0.4093   0.4094   0.4122
  0.4137   0.4191   0.4226   0.4231   0.4257   0.4305   0.4347   0.4358
  0.4366   0.4416   0.4430   0.4442   0.4483   0.4490   0.4510   0.4557
  0.4587   0.4600   0.4642   0.4645   0.4692   0.4712   0.4755   0.4766
  0.4812   0.4877   0.4902   0.4937   0.4947   0.5008   0.5024   0.5031
  0.5079   0.5091   0.5146   0.5164   0.5196   0.5205   0.5226   0.5271
  0.5283   0.5366   0.5393   0.5408   0.5412   0.5474   0.5514   0.5525
  0.5581   0.5602   0.5629   0.5687   0.5710   0.5717   0.5744   0.5764
  0.5848   0.5896   0.5928   0.5947   0.5966   0.5993   0.6014   0.6070
  0.6098   0.6111   0.6155   0.6175   0.6194   0.6217   0.6234   0.6259
  0.6272   0.6288   0.6302   0.6318   0.6326   0.6356   0.6361   0.6386
  0.6447   0.6451   0.6479   0.6502   0.6510   0.6554   0.6601   0.6642
  0.6693   0.6718   0.6768   0.6823   0.6827   0.6879   0.6926   0.6963
  0.7018   0.7092   0.7095   0.7159   0.7181   0.7215   0.7237   0.7344
  0.7369   0.7381   0.7412   0.7449   0.7477   0.7490   0.7613   0.7638
  0.7676   0.7783   0.7858   0.7937   0.7973   0.8045   0.8060   0.8131
  0.8154   0.8182   0.8242   0.8292   0.8324   0.8370   0.8401   0.8446
  0.8494   0.8538   0.8570   0.8590   0.8672   0.8702   0.8802   0.8849
  0.8905   0.8970   0.9025   0.9118   0.9146   0.9236   0.9281   0.9382
  0.9426   0.9468   0.9518   0.9602   0.9627   0.9673   0.9697   0.9718
  0.9778   0.9885   0.9923   0.9951   0.9994   1.0060   1.0073   1.0135
  1.0224   1.0244   1.0258   1.0281   1.0297   1.0320   1.0401   1.0406
  1.0427   1.0490   1.0517   1.0578   1.0616   1.0637   1.0646   1.0700
  1.0713   1.0812   1.0894   1.0920   1.0938   1.0944   1.1002   1.1111
  1.1119   1.1264   1.1386   1.1455   1.1463   1.1614   1.1621   1.1666
  1.1695   1.1705   1.1766   1.1834   1.1869   1.1927   1.1984   1.2058
  1.2212   1.2240   1.2359   1.2397   1.2442   1.2450   1.2506   1.2514
  1.2571   1.2593   1.2625   1.2695   1.2801   1.2875   1.2950   1.3060
  1.3149   1.3187   1.3197   1.3371   1.3493   1.3528   1.3577   1.3586
  1.3599   1.3637   1.3660   1.3713   1.3715   1.3783   1.3816   1.3915
  1.3963   1.3983   1.4048   1.4104   1.4133   1.4221   1.4234   1.4319
  1.4370   1.4400   1.4431   1.4465   1.4509   1.4511   1.4545   1.4639
  1.4670   1.4691   1.4707   1.4733   1.4742   1.4798   1.4823   1.4863
  1.4914   1.5002   1.5039   1.5108   1.5146   1.5157   1.5200   1.5236
  1.5356   1.5392   1.5417   1.5447   1.5465   1.5498   1.5531   1.5547
  1.5578   1.5640   1.5646   1.5691   1.5728   1.5768   1.5820   1.5871
  1.5913   1.5924   1.6005   1.6022   1.6114   1.6131   1.6156   1.6184
  1.6186   1.6277   1.6284   1.6302   1.6386   1.6428   1.6463   1.6495
  1.6524   1.6566   1.6689   1.6716   1.6719   1.6791   1.6836   1.6908
  1.6982   1.7021   1.7040   1.7063   1.7076   1.7123   1.7174   1.7219
  1.7256   1.7313   1.7383   1.7420   1.7486   1.7513   1.7545   1.7560
  1.7615   1.7625   1.7655   1.7665   1.7752   1.7782   1.7836   1.7851
  1.7864   1.7907   1.7994   1.8022   1.8026   1.8042   1.8083   1.8132
  1.8160   1.8232   1.8321   1.8333   1.8423   1.8458   1.8556   1.8577
  1.8596   1.8618   1.8632   1.8665   1.8699   1.8757   1.8776   1.8790
  1.8865   1.8934   1.8991   1.9035   1.9058   1.9072   1.9124   1.9132
  1.9151   1.9180   1.9188   1.9236   1.9275   1.9280   1.9321   1.9442
  1.9536   1.9553   1.9598   1.9619   1.9716   1.9730   1.9821   1.9826
  1.9860   1.9956   2.0006   2.0046   2.0148   2.0189   2.0216   2.0313
  2.0362   2.0431   2.0455   2.0520   2.0576   2.0624   2.0653   2.0683
  2.0749   2.0866   2.0906   2.0999   2.1055   2.1127   2.1160   2.1165
  2.1255   2.1388   2.1403   2.1478   2.1535   2.1578   2.1613   2.1749
  2.1832   2.1869   2.1897   2.2105   2.2191   2.2325   2.2345   2.2430
  2.2446   2.2472   2.2606   2.2735   2.2744   2.2813   2.2971   2.2979
  2.3055   2.3094   2.3104   2.3170   2.3246   2.3350   2.3419   2.3456
  2.3504   2.3601   2.3613   2.3653   2.3716   2.3871   2.3908   2.3919
  2.4015   2.4036   2.4106   2.4150   2.4252   2.4259   2.4367   2.4523
  2.4556   2.4653   2.4676   2.4797   2.4829   2.4852   2.4899   2.4971
  2.5020   2.5055   2.5111   2.5205   2.5225   2.5269   2.5430   2.5452
  2.5589   2.5608   2.5715   2.5832   2.5856   2.5895   2.5926   2.6017
  2.6031   2.6046   2.6081   2.6188   2.6229   2.6264   2.6281   2.6293
  2.6307   2.6368   2.6388   2.6404   2.6422   2.6471   2.6491   2.6518
  2.6537   2.6629   2.6645   2.6733   2.6752   2.6817   2.6853   2.6902
  2.6916   2.7008   2.7100   2.7151   2.7207   2.7240   2.7253   2.7355
  2.7406   2.7477   2.7507   2.7549   2.7626   2.7663   2.7726   2.7750
  2.7843   2.7912   2.8025   2.8070   2.8139   2.8163   2.8318   2.8341
  2.8430   2.8559   2.8588   2.8638   2.8690   2.8715   2.8812   2.8863
  2.8953   2.9004   2.9018   2.9103   2.9222   2.9239   2.9285   2.9316
  2.9485   2.9535   2.9564   2.9705   2.9732   2.9754   2.9858   3.0100
  3.0145   3.0230   3.0360   3.0454   3.0512   3.0522   3.0551   3.0598
  3.0693   3.0800   3.0818   3.1012   3.1430   3.1563   3.1585   3.1590
  3.1686   3.1739   3.1818   3.1941   3.2080   3.2108   3.2133   3.2286
  3.2569   3.2743   3.3197   3.3455   3.3518   3.3551   3.3613   3.3620
  3.3694   3.3754   3.3792   3.3962   3.4037   3.4255   3.4325   3.4797
  3.4944   3.5111   3.5200   3.5489   3.5577   3.5616   3.5626   3.5693
  3.5813   3.5890   3.5937   3.5961   3.5970   3.5981   3.6459   3.6480
  3.6570   3.6624   3.6627   3.6740   3.6901   3.6932   3.7077   3.7812
  3.7950   3.7981   3.8017   3.8017   3.8042   3.8109   3.8136   3.8193
  3.8217   3.8237   3.8302   3.8311   3.8432   3.8529   3.8543   3.8575
  3.8741   3.8821   3.8895   3.9047   3.9228   3.9338   3.9519   3.9566
  3.9598   3.9694   3.9724   3.9742   3.9796   3.9967   4.0040   4.0067
  4.0241   4.0246   4.0256   4.0287   4.0418   4.0493   4.0508   4.0727
  4.0737   4.0880   4.1030   4.1040   4.1226   4.1312   4.1368   4.1422
  4.1552   4.1566   4.1651   4.1744   4.2236   4.2251   4.2668   4.2753
  4.2873   4.2878   4.3174   4.3821   4.5652   4.5783   4.6229   4.6497
  4.6507   4.6992   4.7448   4.7473   4.7895   4.7987   4.8078   4.8108
  4.8116   4.8193   4.8451   4.8743   4.8866   4.8897   5.0292   5.0552
  5.2167   5.7286   6.1116   6.1123   6.1622   6.1642   6.2239   6.2248
  6.2253   6.2379   6.2385   6.2459   6.3156   6.3461   6.3508   6.4149
  6.4161   6.4222   6.4512   6.4555   6.4742   6.5889   6.5916   6.7379
  6.7420   6.7628  23.3582  23.3948  23.4790  23.5926  23.6631  23.7722
 23.7882  23.8132  23.8236  23.8267  23.8694  23.8712  23.8735  23.8791
 23.8804  23.8896  23.9218  23.9256  23.9313  23.9562  23.9582  23.9684
 23.9722  23.9858  23.9902  23.9912  24.0477  24.0523  24.0681  24.0961
 24.1076  24.1156  24.1306  24.1579  24.2158  24.2192  35.4240  35.6651
 35.6808  50.1028  66.8053  66.8083  66.8354  66.8367  66.8380  66.8499
 66.8504  66.8530
 --------------------------------------------------------------
 
          Ground-State Mulliken Net Atomic Charges

     Atom                 Charge (a.u.)
  ----------------------------------------
      1 C                    -0.180650
      2 O                    -0.410699
      3 C                     0.484568
      4 C                    -0.144292
      5 H                     0.169655
      6 H                     0.202324
      7 N                    -0.498985
      8 C                    -0.214976
      9 C                    -0.084462
     10 C                    -0.054657
     11 C                    -0.151507
     12 H                     0.135498
     13 C                    -0.144947
     14 H                     0.160035
     15 C                    -0.116138
     16 H                     0.143979
     17 H                     0.155455
     18 H                     0.153272
     19 C                    -0.086472
     20 C                    -0.124267
     21 C                    -0.076859
     22 C                    -0.118108
     23 H                     0.137349
     24 C                    -0.116822
     25 H                     0.161370
     26 C                    -0.119857
     27 H                     0.140013
     28 H                     0.144088
     29 C                    -0.364072
     30 H                     0.155484
     31 H                     0.167727
     32 H                     0.157214
     33 H                     0.271155
     34 C                     0.472686
     35 F                    -0.190664
     36 F                    -0.211319
     37 C                    -0.177681
     38 C                    -0.190716
     39 H                     0.225931
     40 H                     0.214440
     41 H                     0.212013
     42 H                     0.194781
     43 C                    -0.206646
     44 H                     0.218840
     45 H                     0.229222
     46 C                    -0.192110
     47 H                     0.205414
     48 H                     0.201613
     49 C                    -0.203550
     50 H                     0.192164
     51 H                     0.209580
     52 C                    -0.175669
     53 H                     0.230546
     54 H                     0.216530
     55 N                    -0.328914
     56 N                    -0.392680
     57 C                    -0.228854
     58 H                     0.261615
     59 C                    -0.046138
     60 C                    -0.148371
     61 C                    -0.113212
     62 C                     0.247108
     63 H                     0.180761
     64 C                     0.246981
     65 H                     0.182172
     66 C                     0.214276
     67 C                    -0.043555
     68 C                    -0.116111
     69 C                    -0.118151
     70 C                     0.247907
     71 H                     0.180660
     72 C                     0.236640
     73 H                     0.187941
     74 C                     0.216468
     75 F                    -0.215713
     76 F                    -0.200026
     77 F                    -0.221527
     78 F                    -0.216249
     79 F                    -0.200238
     80 F                    -0.219612
  ----------------------------------------
  Sum of atomic charges =     1.000000

 -----------------------------------------------------------------
                    Cartesian Multipole Moments
 -----------------------------------------------------------------
    Charge (ESU x 10^10)
                 4.8032
    Dipole Moment (Debye)
         X      12.5872      Y      11.1689      Z      -5.6927
       Tot      17.7648
    Quadrupole Moments (Debye-Ang)
        XX    -262.1288     XY      20.1952     YY    -218.9709
        XZ       5.6137     YZ     -31.9188     ZZ    -267.7508
    Octopole Moments (Debye-Ang^2)
       XXX      36.0311    XXY    -219.3686    XYY     -54.2188
       YYY    -980.9685    XXZ    -316.3268    XYZ      31.5204
       YYZ    -148.2421    XZZ      27.8917    YZZ    -409.8665
       ZZZ    -386.3773
    Hexadecapole Moments (Debye-Ang^3)
      XXXX  -35424.9280   XXXY      94.7040   XXYY   -6987.8887
      XYYY     885.8160   YYYY  -14039.7819   XXXZ    4201.4045
      XXYZ    -375.2115   XYYZ    1205.0898   YYYZ    -660.5768
      XXZZ   -7275.9572   XYZZ     840.2321   YYZZ   -3883.3687
      XZZZ    3878.0536   YZZZ    -792.7035   ZZZZ   -9905.6309
 -----------------------------------------------------------------
Archival summary:
1\1\smp-n55.crc.pitt.edu\SP\ProcedureUnspecified\6-311G**\8133632(1+,1)\bim12\SunJan1702:22:162021SunJan1702:22:162021\0\\#,ProcedureUnspecified,6-311G**,\\1,1\F\C,1,1.31936\F,2,1.33469,1,108.897\C,2,1.42847,1,122.321,3,-147.345,0\C,4,1.4502,2,120.78,1,156.999,0\C,5,1.41489,4,122.533,2,-38.657,0\H,6,1.08137,5,120.23,4,1.97424,0\C,6,1.38737,5,120.525,4,-175.397,0\H,8,1.08653,6,119.176,5,178.382,0\C,8,1.40312,6,121.394,5,-1.59885,0\C,10,1.40569,8,118.174,6,1.30959,0\H,11,1.08606,10,119.725,8,179.849,0\C,11,1.38396,10,121.051,8,0.180575,0\H,13,1.0831,11,118.707,10,-179.86,0\C,10,1.5053,8,121.219,6,-177.648,0\H,15,1.09405,10,111.728,8,-22.2557,0\H,15,1.09509,10,111.35,8,-143.804,0\H,15,1.09821,10,110.349,8,97.3576,0\C,4,1.5263,2,121.304,1,-31.2701,0\H,19,1.09516,4,108.658,2,-98.7874,0\H,19,1.09606,4,105.317,2,146.253,0\N,19,1.42909,4,117.73,2,23.2752,0\H,22,1.03038,19,117.381,4,-109.79,0\C,22,1.36152,19,118.172,4,64.5429,0\O,24,1.23777,22,120.202,19,-9.00077,0\C,24,1.49391,22,116.719,19,171.149,0\C,26,1.40159,24,117.922,22,159.645,0\H,27,1.08532,26,118.533,24,-0.116,0\C,27,1.39349,26,120.17,24,179.797,0\H,29,1.08667,27,119.86,26,179.406,0\C,29,1.39852,27,119.989,26,-0.871098,0\H,31,1.08682,29,120.222,27,-179.805,0\C,31,1.39628,29,120.05,27,0.0694104,0\H,33,1.08449,31,120.31,29,-179.359,0\C,33,1.39413,31,120.145,29,0.588884,0\H,35,1.08344,33,118.973,31,-179.772,0\H,20,2.92033,19,142.901,4,79.0099,0\C,37,1.08832,20,130.773,19,-94.986,0\H,38,1.09246,37,109.944,20,-38.6364,0\N,38,1.47917,37,108.3,20,79.4054,0\C,40,1.47693,38,108.784,37,173.694,0\H,41,1.09078,40,109.073,38,47.8441,0\H,41,1.0928,40,109.315,38,167.909,0\C,40,1.48118,38,110.355,37,53.5031,0\H,44,1.08692,40,109.302,38,-68.6496,0\H,44,1.09093,40,107.907,38,172.145,0\C,38,1.53785,37,110.432,20,-160.506,0\H,47,1.08395,38,112.939,37,135.543,0\H,47,1.08511,38,108.751,37,11.1136,0\N,47,1.52659,38,109.013,37,-105.705,0\C,50,1.50904,47,107.795,38,50.9453,0\H,51,1.08407,50,107.025,47,51.3087,0\H,51,1.08835,50,109.391,47,170.165,0\C,50,1.52197,47,109.016,38,-65.3495,0\H,54,1.08811,50,108.8,47,-73.7375,0\H,54,1.08934,50,106.424,47,168.091,0\C,50,1.57823,47,107.939,38,174.111,0\H,57,1.08928,50,100.962,47,57.1081,0\C,57,1.52035,50,111.695,47,170.706,0\C,59,1.4026,57,123.816,50,82.9773,0\H,60,1.07815,59,123.108,57,0.929178,0\C,60,1.38692,59,119.667,57,-179.476,0\F,62,1.34902,60,120.262,59,179.418,0\C,62,1.39171,60,121.692,59,0.0051131,0\F,64,1.33613,62,120.732,60,179.678,0\C,64,1.3935,62,118.227,60,-0.77589,0\F,66,1.3392,64,118.19,62,-179.585,0\C,66,1.38817,64,121.354,62,0.783153,0\H,68,1.08555,66,118.816,64,178.767,0\C,57,1.52227,50,110.174,47,-55.7295,0\C,70,1.40261,57,124.465,50,-69.8708,0\H,71,1.07916,70,123.514,57,-1.49462,0\C,71,1.38675,70,120.188,57,173.897,0\F,73,1.3425,71,120.117,70,179.822,0\C,73,1.39077,71,121.284,70,-1.03625,0\F,75,1.33602,73,120.974,71,-176.249,0\C,75,1.39225,73,118.13,71,2.7546,0\F,77,1.3445,75,118.233,73,-179.797,0\C,77,1.38718,75,121.766,73,-2.32687,0\H,79,1.08486,77,119.073,75,-175.792,0\\\@

 Total job time:  1858.69s(wall), 15116.76s(cpu) 
 Sun Jan 17 02:22:16 2021

        *************************************************************
        *                                                           *
        *  Thank you very much for using Q-Chem.  Have a nice day.  *
        *                                                           *
        *************************************************************


remove work dirs /scratch/slurm-2254668/qchem217425.0 -- /scratch/slurm-2254668/qchem217425.-1
rm -rf /scratch/slurm-2254668/qchem217425
